# vtk DataFile Version 3.0
vtk output
ASCII
DATASET POLYDATA
POINTS 217 float
0 0 0 0.1 0 0 0.2 0 0 
0.3 0 0 0.4 0 0 0.5 0 0 
0.6 0 0 0.7 0 0 0.8 0 0 
0.9 0 0 1 0 0 1.1 0 0 
1.2 0 0 1.3 0 0 1.4 0 0 
1.5 0 0 1.6 0 0 1.7 0 0 
1.8 0 0 1.9 0 0 2 0 0 
2.1 0 0 2.2 0 0 2.3 0 0 
2.4 0 0 2.5 0 0 2.6 0 0 
2.7 0 0 2.8 0 0 2.9 0 0 
3 0 0 3.1 0 0 3.2 0 0 
3.3 0 0 3.4 0 0 3.5 0 0 
3.6 0 0 3.7 0 0 3.8 0 0 
3.9 0 0 4 0 0 4.1 0 0 
4.2 0 0 4.3 0 0 4.4 0 0 
4.5 0 0 4.6 0 0 4.7 0 0 
4.8 0 0 4.9 0 0 5 0 0 
5.1 0 0 5.2 0 0 5.3 0 0 
5.4 0 0 5.5 0 0 5.6 0 0 
5.7 0 0 5.8 0 0 5.9 0 0 
6 0 0 6.1 0 0 6.2 0 0 
6.3 0 0 6.4 0 0 6.5 0 0 
6.6 0 0 6.7 0 0 6.8 0 0 
6.9 0 0 7 0 0 7.1 0 0 
7.2 0 0 7.2866 0.05 0 7.37321 0.1 0 
7.45981 0.15 0 7.54641 0.2 0 7.63301 0.25 0 
7.71962 0.3 0 7.80622 0.35 0 7.89282 0.4 0 
7.97942 0.45 0 8.06603 0.5 0 8.15263 0.55 0 
8.23923 0.6 0 8.32583 0.65 0 8.41244 0.7 0 
8.49904 0.75 0 8.58564 0.8 0 8.67224 0.85 0 
8.75885 0.9 0 8.84545 0.95 0 8.93205 1 0 
9.01865 1.05 0 9.10526 1.1 0 9.19186 1.15 0 
9.27846 1.2 0 9.36506 1.25 0 9.45167 1.3 0 
9.53827 1.35 0 9.62487 1.4 0 9.71147 1.45 0 
9.79808 1.5 0 9.88468 1.55 0 9.97128 1.6 0 
10.0579 1.65 0 10.1445 1.7 0 10.2311 1.75 0 
10.3177 1.8 0 10.4043 1.85 0 10.4909 1.9 0 
10.5775 1.95 0 10.6641 2 0 10.7507 2.05 0 
10.8373 2.1 0 10.9239 2.15 0 11.0105 2.2 0 
11.0971 2.25 0 11.1837 2.3 0 11.2703 2.35 0 
11.3569 2.4 0 11.4435 2.45 0 11.5301 2.5 0 
11.6167 2.55 0 11.7033 2.6 0 11.7899 2.65 0 
11.8765 2.7 0 11.9631 2.75 0 12.0497 2.8 0 
12.1363 2.85 0 12.2229 2.9 0 12.3096 2.95 0 
12.3962 3 0 12.4828 3.05 0 12.5694 3.1 0 
12.656 3.15 0 12.7426 3.2 0 12.8292 3.25 0 
12.9158 3.3 0 13.0024 3.35 0 13.089 3.4 0 
13.1756 3.45 0 13.2622 3.5 0 13.3488 3.55 0 
13.4354 3.6 0 7.2866 -0.05 0 7.37321 -0.1 0 
7.45981 -0.15 0 7.54641 -0.2 0 7.63301 -0.25 0 
7.71962 -0.3 0 7.80622 -0.35 0 7.89282 -0.4 0 
7.97942 -0.45 0 8.06603 -0.5 0 8.15263 -0.55 0 
8.23923 -0.6 0 8.32583 -0.65 0 8.41244 -0.7 0 
8.49904 -0.75 0 8.58564 -0.8 0 8.67224 -0.85 0 
8.75885 -0.9 0 8.84545 -0.95 0 8.93205 -1 0 
9.01865 -1.05 0 9.10526 -1.1 0 9.19186 -1.15 0 
9.27846 -1.2 0 9.36506 -1.25 0 9.45167 -1.3 0 
9.53827 -1.35 0 9.62487 -1.4 0 9.71147 -1.45 0 
9.79808 -1.5 0 9.88468 -1.55 0 9.97128 -1.6 0 
10.0579 -1.65 0 10.1445 -1.7 0 10.2311 -1.75 0 
10.3177 -1.8 0 10.4043 -1.85 0 10.4909 -1.9 0 
10.5775 -1.95 0 10.6641 -2 0 10.7507 -2.05 0 
10.8373 -2.1 0 10.9239 -2.15 0 11.0105 -2.2 0 
11.0971 -2.25 0 11.1837 -2.3 0 11.2703 -2.35 0 
11.3569 -2.4 0 11.4435 -2.45 0 11.5301 -2.5 0 
11.6167 -2.55 0 11.7033 -2.6 0 11.7899 -2.65 0 
11.8765 -2.7 0 11.9631 -2.75 0 12.0497 -2.8 0 
12.1363 -2.85 0 12.2229 -2.9 0 12.3096 -2.95 0 
12.3962 -3 0 12.4828 -3.05 0 12.5694 -3.1 0 
12.656 -3.15 0 12.7426 -3.2 0 12.8292 -3.25 0 
12.9158 -3.3 0 13.0024 -3.35 0 13.089 -3.4 0 
13.1756 -3.45 0 13.2622 -3.5 0 13.3488 -3.55 0 
13.4354 -3.6 0 
LINES 3 222
73 0 1 2 3 4 5 6 7 8 9 10 11 12 13 14 15 16 17 18 19 20 21 22 23 24 25 26 27 28 29 30 31 32 33 34 35 36 37 38 39 40 41 42 43 44 45 46 47 48 49 50 51 52 53 54 55 56 57 58 59 60 61 62 63 64 65 66 67 68 69 70 71 72 
73 72 73 74 75 76 77 78 79 80 81 82 83 84 85 86 87 88 89 90 91 92 93 94 95 96 97 98 99 100 101 102 103 104 105 106 107 108 109 110 111 112 113 114 115 116 117 118 119 120 121 122 123 124 125 126 127 128 129 130 131 132 133 134 135 136 137 138 139 140 141 142 143 144 
73 72 145 146 147 148 149 150 151 152 153 154 155 156 157 158 159 160 161 162 163 164 165 166 167 168 169 170 171 172 173 174 175 176 177 178 179 180 181 182 183 184 185 186 187 188 189 190 191 192 193 194 195 196 197 198 199 200 201 202 203 204 205 206 207 208 209 210 211 212 213 214 215 216 

POINT_DATA 217
SCALARS radiiScalars double
LOOKUP_TABLE default
1.52789 1.52789 1.52789 1.52789 1.52789 1.52789 1.52789 1.52789 1.52789 
1.52789 1.52789 1.52789 1.52789 1.52789 1.52789 1.52789 1.52789 1.52789 
1.52789 1.52789 1.52789 1.52789 1.52789 1.52789 1.52789 1.52789 1.52789 
1.52789 1.52789 1.52789 1.52789 1.52789 1.52789 1.52789 1.52789 1.52789 
1.52789 1.52789 1.52789 1.52789 1.52789 1.52789 1.52789 1.52789 1.52789 
1.52789 1.52789 1.52789 1.52789 1.52789 1.52789 1.52789 1.52789 1.52789 
1.52789 1.52789 1.52789 1.52789 1.52789 1.52789 1.52789 1.52789 1.52789 
1.52789 1.52789 1.52789 1.52789 1.52789 1.52789 1.52789 1.52789 1.52789 
1.52789 1.52789 1.52789 1.52789 1.52789 1.52789 1.52789 1.52789 1.52789 
1.52789 1.52789 1.52789 1.52789 1.52789 1.52789 1.52789 1.52789 1.52789 
1.52789 1.52789 1.52789 1.52789 1.52789 1.52789 1.52789 1.52789 1.52789 
1.52789 1.52789 1.52789 1.52789 1.52789 1.52789 1.52789 1.52789 1.52789 
1.52789 1.52789 1.52789 1.52789 1.52789 1.52789 1.52789 1.52789 1.52789 
1.52789 1.52789 1.52789 1.52789 1.52789 1.52789 1.52789 1.52789 1.52789 
1.52789 1.52789 1.52789 1.52789 1.52789 1.52789 1.52789 1.52789 1.52789 
1.52789 1.52789 1.52789 1.52789 1.52789 1.52789 1.52789 1.52789 1.52789 
1.52789 1.52789 1.52789 1.52789 1.52789 1.52789 1.52789 1.52789 1.52789 
1.52789 1.52789 1.52789 1.52789 1.52789 1.52789 1.52789 1.52789 1.52789 
1.52789 1.52789 1.52789 1.52789 1.52789 1.52789 1.52789 1.52789 1.52789 
1.52789 1.52789 1.52789 1.52789 1.52789 1.52789 1.52789 1.52789 1.52789 
1.52789 1.52789 1.52789 1.52789 1.52789 1.52789 1.52789 1.52789 1.52789 
1.52789 1.52789 1.52789 1.52789 1.52789 1.52789 1.52789 1.52789 1.52789 
1.52789 1.52789 1.52789 1.52789 1.52789 1.52789 1.52789 1.52789 1.52789 
1.52789 1.52789 1.52789 1.52789 1.52789 1.52789 1.52789 1.52789 1.52789 
1.52789 
