# vtk DataFile Version 3.0
vtk output
ASCII
DATASET POLYDATA
POINTS 3601 float
0 0 0 0.1 0 0 0.2 0 0 
0.3 0 0 0.4 0 0 0.5 0 0 
0.6 0 0 0.7 0 0 0.8 0 0 
0.9 0 0 1 0 0 1.1 0 0 
1.2 0 0 1.3 0 0 1.4 0 0 
1.5 0 0 1.6 0 0 1.7 0 0 
1.8 0 0 1.9 0 0 2 0 0 
2.1 0 0 2.2 0 0 2.3 0 0 
2.4 0 0 2.5 0 0 2.6 0 0 
2.7 0 0 2.8 0 0 2.9 0 0 
3 0 0 3.1 0 0 3.2 0 0 
3.3 0 0 3.4 0 0 3.5 0 0 
3.6 0 0 3.7 0 0 3.8 0 0 
3.9 0 0 4 0 0 4.1 0 0 
4.2 0 0 4.3 0 0 4.4 0 0 
4.5 0 0 4.6 0 0 4.7 0 0 
4.8 0 0 4.9 0 0 5 0 0 
5.1 0 0 5.2 0 0 5.3 0 0 
5.4 0 0 5.5 0 0 5.6 0 0 
5.7 0 0 5.8 0 0 5.9 0 0 
6 0 0 6.1 0 0 6.2 0 0 
6.3 0 0 6.4 0 0 6.5 0 0 
6.6 0 0 6.7 0 0 6.8 0 0 
6.9 0 0 7 0 0 7.1 0 0 
7.2 0 0 7.3 0 0 7.4 0 0 
7.5 0 0 7.6 0 0 7.7 0 0 
7.8 0 0 7.9 0 0 8 0 0 
8.1 0 0 8.2 0 0 8.3 0 0 
8.4 0 0 8.5 0 0 8.6 0 0 
8.7 0 0 8.8 0 0 8.9 0 0 
9 0 0 9.1 0 0 9.2 0 0 
9.3 0 0 9.4 0 0 9.5 0 0 
9.6 0 0 9.7 0 0 9.8 0 0 
9.9 0 0 10 0 0 10.1 0 0 
10.2 0 0 10.3 0 0 10.4 0 0 
10.5 0 0 10.6 0 0 10.7 0 0 
10.8 0 0 10.9 0 0 11 0 0 
11.1 0 0 11.2 0 0 11.3 0 0 
11.4 0 0 11.5 0 0 11.6 0 0 
11.7 0 0 11.8 0 0 11.9 0 0 
12 0 0 12.1 0 0 12.2 0 0 
12.3 0 0 12.4 0 0 12.5 0 0 
12.6 0 0 12.7 0 0 12.8 0 0 
12.9 0 0 13 0 0 13.1 0 0 
13.2 0 0 13.3 0 0 13.4 0 0 
13.5 0 0 13.6 0 0 13.7 0 0 
13.8 0 0 13.9 0 0 14 0 0 
14.1 0 0 14.2 0 0 14.3 0 0 
14.4 0 0 14.5 0 0 14.6 0 0 
14.7 0 0 14.8 0 0 14.9 0 0 
15 0 0 15.1 0 0 15.2 0 0 
15.3 0 0 15.4 0 0 15.5 0 0 
15.6 0 0 15.7 0 0 15.8 0 0 
15.9 0 0 16 0 0 16.1 0 0 
16.2 0 0 16.3 0 0 16.4 0 0 
16.5 0 0 16.6 0 0 16.7 0 0 
16.8 0 0 16.9 0 0 17 0 0 
17.1 0 0 17.2 0 0 17.3 0 0 
17.4 0 0 17.5 0 0 17.6 0 0 
17.7 0 0 17.8 0 0 17.9 0 0 
18 0 0 18.1 0 0 18.2 0 0 
18.3 0 0 18.4 0 0 18.5 0 0 
18.6 0 0 18.7 0 0 18.8 0 0 
18.9 0 0 19 0 0 19.1 0 0 
19.2 0 0 19.3 0 0 19.4 0 0 
19.5 0 0 19.6 0 0 19.7 0 0 
19.8 0 0 19.9 0 0 20 0 0 
20.0866 0.05 0 20.1732 0.1 0 20.2598 0.15 0 
20.3464 0.2 0 20.433 0.25 0 20.5196 0.3 0 
20.6062 0.35 0 20.6928 0.4 0 20.7794 0.45 0 
20.866 0.5 0 20.9526 0.55 0 21.0392 0.6 0 
21.1258 0.65 0 21.2124 0.7 0 21.299 0.75 0 
21.3856 0.8 0 21.4722 0.85 0 21.5588 0.9 0 
21.6454 0.95 0 21.732 1 0 21.8187 1.05 0 
21.9053 1.1 0 21.9919 1.15 0 22.0785 1.2 0 
22.1651 1.25 0 22.2517 1.3 0 22.3383 1.35 0 
22.4249 1.4 0 22.5115 1.45 0 22.5981 1.5 0 
22.6847 1.55 0 22.7713 1.6 0 22.8579 1.65 0 
22.9445 1.7 0 23.0311 1.75 0 23.1177 1.8 0 
23.2043 1.85 0 23.2909 1.9 0 23.3775 1.95 0 
23.4641 2 0 23.5507 2.05 0 23.6373 2.1 0 
23.7239 2.15 0 23.8105 2.2 0 23.8971 2.25 0 
23.9837 2.3 0 24.0703 2.35 0 24.1569 2.4 0 
24.2435 2.45 0 24.3301 2.5 0 24.4167 2.55 0 
24.5033 2.6 0 24.5899 2.65 0 24.6765 2.7 0 
24.7631 2.75 0 24.8497 2.8 0 24.9363 2.85 0 
25.0229 2.9 0 25.1096 2.95 0 25.1962 3 0 
25.2828 3.05 0 25.3694 3.1 0 25.456 3.15 0 
25.5426 3.2 0 25.6292 3.25 0 25.7158 3.3 0 
25.8024 3.35 0 25.889 3.4 0 25.9756 3.45 0 
26.0622 3.5 0 26.1488 3.55 0 26.2354 3.6 0 
26.322 3.65 0 26.4086 3.7 0 26.4952 3.75 0 
26.5818 3.8 0 26.6684 3.85 0 26.755 3.9 0 
26.8416 3.95 0 26.9282 4 0 27.0148 4.05 0 
27.1014 4.1 0 27.188 4.15 0 27.2746 4.2 0 
27.3612 4.25 0 27.4478 4.3 0 27.5344 4.35 0 
27.621 4.4 0 27.7076 4.45 0 27.7942 4.5 0 
27.8808 4.55 0 27.9674 4.6 0 28.054 4.65 0 
28.1406 4.7 0 28.2272 4.75 0 28.3138 4.8 0 
28.4004 4.85 0 28.487 4.9 0 28.5737 4.95 0 
28.6603 5 0 28.7469 5.05 0 28.8335 5.1 0 
28.9201 5.15 0 29.0067 5.2 0 29.0933 5.25 0 
29.1799 5.3 0 29.2665 5.35 0 29.3531 5.4 0 
29.4397 5.45 0 29.5263 5.5 0 29.6129 5.55 0 
29.6995 5.6 0 29.7861 5.65 0 29.8727 5.7 0 
29.9593 5.75 0 30.0459 5.8 0 30.1325 5.85 0 
30.2191 5.9 0 30.3057 5.95 0 30.3923 6 0 
30.4789 6.05 0 30.5655 6.1 0 30.6521 6.15 0 
30.7387 6.2 0 30.8253 6.25 0 30.9119 6.3 0 
30.9985 6.35 0 31.0851 6.4 0 31.1717 6.45 0 
31.2583 6.5 0 31.3449 6.55 0 31.4315 6.6 0 
31.5181 6.65 0 31.6047 6.7 0 31.6913 6.75 0 
31.7779 6.8 0 31.8645 6.85 0 31.9512 6.9 0 
32.0378 6.95 0 32.1244 7 0 32.211 7.05 0 
32.2976 7.1 0 32.3842 7.15 0 32.4708 7.2 0 
32.5574 7.25 0 32.644 7.3 0 32.7306 7.35 0 
32.8172 7.4 0 32.9038 7.45 0 32.9904 7.5 0 
33.077 7.55 0 33.1636 7.6 0 33.2502 7.65 0 
33.3368 7.7 0 33.4234 7.75 0 33.51 7.8 0 
33.5966 7.85 0 33.6832 7.9 0 33.7698 7.95 0 
33.8564 8 0 33.943 8.05 0 34.0296 8.1 0 
34.1162 8.15 0 34.2028 8.2 0 34.2894 8.25 0 
34.376 8.3 0 34.4626 8.35 0 34.5492 8.4 0 
34.6358 8.45 0 34.7224 8.5 0 34.809 8.55 0 
34.8956 8.6 0 34.9822 8.65 0 35.0688 8.7 0 
35.1554 8.75 0 35.242 8.8 0 35.3287 8.85 0 
35.4153 8.9 0 35.5019 8.95 0 35.5885 9 0 
35.6751 9.05 0 35.7617 9.1 0 35.8483 9.15 0 
35.9349 9.2 0 36.0215 9.25 0 36.1081 9.3 0 
36.1947 9.35 0 36.2813 9.4 0 36.3679 9.45 0 
36.4545 9.5 0 36.5411 9.55 0 36.6277 9.6 0 
36.7143 9.65 0 36.8009 9.7 0 36.8875 9.75 0 
36.9741 9.8 0 37.0607 9.85 0 37.1473 9.9 0 
37.2339 9.95 0 37.3205 10 0 37.3464 10.0966 0 
37.3723 10.1932 0 37.3982 10.2898 0 37.424 10.3864 0 
37.4499 10.483 0 37.4758 10.5796 0 37.5017 10.6761 0 
37.5276 10.7727 0 37.5534 10.8693 0 37.5793 10.9659 0 
37.6052 11.0625 0 37.6311 11.1591 0 37.657 11.2557 0 
37.6829 11.3523 0 37.7087 11.4489 0 37.7346 11.5455 0 
37.7605 11.6421 0 37.7864 11.7387 0 37.8123 11.8353 0 
37.8381 11.9319 0 37.864 12.0284 0 37.8899 12.125 0 
37.9158 12.2216 0 37.9417 12.3182 0 37.9676 12.4148 0 
37.9934 12.5114 0 38.0193 12.608 0 38.0452 12.7046 0 
38.0711 12.8012 0 38.097 12.8978 0 38.1228 12.9944 0 
38.1487 13.091 0 38.1746 13.1876 0 38.2005 13.2841 0 
38.2264 13.3807 0 38.2523 13.4773 0 38.2781 13.5739 0 
38.304 13.6705 0 38.3299 13.7671 0 38.3558 13.8637 0 
38.3817 13.9603 0 38.4075 14.0569 0 38.4334 14.1535 0 
38.4593 14.2501 0 38.4852 14.3467 0 38.5111 14.4433 0 
38.537 14.5399 0 38.5628 14.6364 0 38.5887 14.733 0 
38.6146 14.8296 0 38.6405 14.9262 0 38.6664 15.0228 0 
38.6922 15.1194 0 38.7181 15.216 0 38.744 15.3126 0 
38.7699 15.4092 0 38.7958 15.5058 0 38.8217 15.6024 0 
38.8475 15.699 0 38.8734 15.7956 0 38.8993 15.8921 0 
38.9252 15.9887 0 38.9511 16.0853 0 38.977 16.1819 0 
39.0028 16.2785 0 39.0287 16.3751 0 39.0546 16.4717 0 
39.0805 16.5683 0 39.1064 16.6649 0 39.1322 16.7615 0 
39.1581 16.8581 0 39.184 16.9547 0 39.2099 17.0513 0 
39.2358 17.1479 0 39.2617 17.2444 0 39.2875 17.341 0 
39.3134 17.4376 0 39.3393 17.5342 0 39.3652 17.6308 0 
39.3911 17.7274 0 39.4169 17.824 0 39.4428 17.9206 0 
39.4687 18.0172 0 39.4946 18.1138 0 39.5205 18.2104 0 
39.5464 18.307 0 39.5722 18.4036 0 39.5981 18.5001 0 
39.624 18.5967 0 39.6499 18.6933 0 39.6758 18.7899 0 
39.7016 18.8865 0 39.7275 18.9831 0 39.7534 19.0797 0 
39.7793 19.1763 0 39.8052 19.2729 0 39.8311 19.3695 0 
39.8569 19.4661 0 39.8828 19.5627 0 39.9087 19.6593 0 
39.9346 19.7559 0 39.9605 19.8524 0 39.9863 19.949 0 
40.0122 20.0456 0 40.0381 20.1422 0 40.064 20.2388 0 
40.0899 20.3354 0 40.1158 20.432 0 40.1416 20.5286 0 
40.1675 20.6252 0 40.1934 20.7218 0 40.2193 20.8184 0 
40.2452 20.915 0 40.271 21.0116 0 40.2969 21.1081 0 
40.3228 21.2047 0 40.3487 21.3013 0 40.3746 21.3979 0 
40.4005 21.4945 0 40.4263 21.5911 0 40.4522 21.6877 0 
40.4781 21.7843 0 40.504 21.8809 0 40.5299 21.9775 0 
40.5557 22.0741 0 40.5816 22.1707 0 40.6075 22.2673 0 
40.6334 22.3638 0 40.6593 22.4604 0 40.6852 22.557 0 
40.711 22.6536 0 40.7369 22.7502 0 40.7628 22.8468 0 
40.7887 22.9434 0 40.8146 23.04 0 40.8404 23.1366 0 
40.8663 23.2332 0 40.8922 23.3298 0 40.9181 23.4264 0 
40.944 23.523 0 40.9699 23.6196 0 40.9957 23.7161 0 
41.0216 23.8127 0 41.0475 23.9093 0 41.0734 24.0059 0 
41.0993 24.1025 0 41.1251 24.1991 0 41.151 24.2957 0 
41.1769 24.3923 0 41.2028 24.4889 0 41.2287 24.5855 0 
41.2546 24.6821 0 41.2804 24.7787 0 41.3063 24.8753 0 
41.3322 24.9718 0 41.3581 25.0684 0 41.384 25.165 0 
41.4098 25.2616 0 41.4357 25.3582 0 41.4616 25.4548 0 
41.4875 25.5514 0 41.5134 25.648 0 41.5393 25.7446 0 
41.5651 25.8412 0 41.591 25.9378 0 41.6169 26.0344 0 
41.6428 26.131 0 41.6687 26.2276 0 41.6945 26.3241 0 
41.7204 26.4207 0 41.7463 26.5173 0 41.7722 26.6139 0 
41.7981 26.7105 0 41.824 26.8071 0 41.8498 26.9037 0 
41.8757 27.0003 0 41.9016 27.0969 0 41.9275 27.1935 0 
41.9534 27.2901 0 41.9793 27.3867 0 42.0051 27.4833 0 
42.031 27.5798 0 42.0569 27.6764 0 42.0828 27.773 0 
42.1087 27.8696 0 42.1345 27.9662 0 42.1604 28.0628 0 
42.1863 28.1594 0 42.2122 28.256 0 42.2381 28.3526 0 
42.264 28.4492 0 42.2898 28.5458 0 42.3157 28.6424 0 
42.3416 28.739 0 42.3675 28.8356 0 42.3934 28.9321 0 
42.4192 29.0287 0 42.4451 29.1253 0 42.471 29.2219 0 
42.4969 29.3185 0 42.4795 29.417 0 42.4622 29.5155 0 
42.4448 29.614 0 42.4274 29.7124 0 42.4101 29.8109 0 
42.3927 29.9094 0 42.3753 30.0079 0 42.358 30.1064 0 
42.3406 30.2048 0 42.3232 30.3033 0 42.3059 30.4018 0 
42.2885 30.5003 0 42.2711 30.5988 0 42.2538 30.6972 0 
42.2364 30.7957 0 42.2191 30.8942 0 42.2017 30.9927 0 
42.1843 31.0912 0 42.167 31.1897 0 42.1496 31.2881 0 
42.1322 31.3866 0 42.1149 31.4851 0 42.0975 31.5836 0 
42.0801 31.6821 0 42.0628 31.7805 0 42.0454 31.879 0 
42.028 31.9775 0 42.0107 32.076 0 41.9933 32.1745 0 
41.9759 32.2729 0 41.9586 32.3714 0 41.9412 32.4699 0 
41.9239 32.5684 0 41.9065 32.6669 0 41.8891 32.7653 0 
41.8718 32.8638 0 41.8544 32.9623 0 41.837 33.0608 0 
41.8197 33.1593 0 41.8023 33.2577 0 41.7849 33.3562 0 
41.7676 33.4547 0 41.7502 33.5532 0 41.7328 33.6517 0 
41.7155 33.7502 0 41.6981 33.8486 0 41.6807 33.9471 0 
41.6634 34.0456 0 41.646 34.1441 0 41.6286 34.2426 0 
41.6113 34.341 0 41.5939 34.4395 0 41.5766 34.538 0 
41.5592 34.6365 0 41.5418 34.735 0 41.5245 34.8334 0 
41.5071 34.9319 0 41.4897 35.0304 0 41.4724 35.1289 0 
41.455 35.2274 0 41.4376 35.3258 0 41.4203 35.4243 0 
41.4029 35.5228 0 41.3855 35.6213 0 41.3682 35.7198 0 
41.3508 35.8182 0 41.3334 35.9167 0 41.3161 36.0152 0 
41.2987 36.1137 0 41.2814 36.2122 0 41.264 36.3106 0 
41.2466 36.4091 0 41.2293 36.5076 0 41.2119 36.6061 0 
41.1945 36.7046 0 41.1772 36.8031 0 41.1598 36.9015 0 
41.1424 37 0 41.1251 37.0985 0 41.1077 37.197 0 
41.0903 37.2955 0 41.073 37.3939 0 41.0556 37.4924 0 
41.0382 37.5909 0 41.0209 37.6894 0 41.0035 37.7879 0 
40.9861 37.8863 0 40.9688 37.9848 0 40.9514 38.0833 0 
[...]
POINT_DATA 3601
SCALARS radiiScalars double
LOOKUP_TABLE default
2.5 2.5 2.5 2.5 2.5 2.5 2.5 2.5 2.5 
2.5 2.5 2.5 2.5 2.5 2.5 2.5 2.5 2.5 
2.5 2.5 2.5 2.5 2.5 2.5 2.5 2.5 2.5 
2.5 2.5 2.5 2.5 2.5 2.5 2.5 2.5 2.5 
2.5 2.5 2.5 2.5 2.5 2.5 2.5 2.5 2.5 
2.5 2.5 2.5 2.5 2.5 2.5 2.5 2.5 2.5 
2.5 2.5 2.5 2.5 2.5 2.5 2.5 2.5 2.5 
2.5 2.5 2.5 2.5 2.5 2.5 2.5 2.5 2.5 
2.5 2.5 2.5 2.5 2.5 2.5 2.5 2.5 2.5 
2.5 2.5 2.5 2.5 2.5 2.5 2.5 2.5 2.5 
2.5 2.5 2.5 2.5 2.5 2.5 2.5 2.5 2.5 
2.5 2.5 2.5 2.5 2.5 2.5 2.5 2.5 2.5 
2.5 2.5 2.5 2.5 2.5 2.5 2.5 2.5 2.5 
2.5 2.5 2.5 2.5 2.5 2.5 2.5 2.5 2.5 
2.5 2.5 2.5 2.5 2.5 2.5 2.5 2.5 2.5 
2.5 2.5 2.5 2.5 2.5 2.5 2.5 2.5 2.5 
2.5 2.5 2.5 2.5 2.5 2.5 2.5 2.5 2.5 
2.5 2.5 2.5 2.5 2.5 2.5 2.5 2.5 2.5 
2.5 2.5 2.5 2.5 2.5 2.5 2.5 2.5 2.5 
2.5 2.5 2.5 2.5 2.5 2.5 2.5 2.5 2.5 
2.5 2.5 2.5 2.5 2.5 2.5 2.5 2.5 2.5 
2.5 2.5 2.5 2.5 2.5 2.5 2.5 2.5 2.5 
2.5 2.5 2.5 2.49231 2.48464 2.477 2.46938 2.46179 2.45421 
2.44667 2.43914 2.43164 2.42416 2.4167 2.40927 2.40186 2.39447 2.3871 
2.37976 2.37244 2.36514 2.35787 2.35062 2.34339 2.33618 2.32899 2.32183 
2.31469 2.30757 2.30047 2.29339 2.28634 2.27931 2.2723 2.26531 2.25834 
2.25139 2.24447 2.23756 2.23068 2.22382 2.21698 2.21016 2.20336 2.19658 
2.18983 2.18309 2.17638 2.16968 2.16301 2.15636 2.14972 2.14311 2.13652 
2.12995 2.12339 2.11686 2.11035 2.10386 2.09739 2.09094 2.08451 2.07809 
2.0717 2.06533 2.05898 2.05264 2.04633 2.04004 2.03376 2.02751 2.02127 
2.01505 2.00885 2.00267 1.99651 1.99037 1.98425 1.98425 1.98425 1.98425 
1.98425 1.98425 1.98425 1.98425 1.98425 1.98425 1.98425 1.98425 1.98425 
1.98425 1.98425 1.98425 1.98425 1.98425 1.98425 1.98425 1.98425 1.98425 
1.98425 1.98425 1.98425 1.98425 1.98425 1.98425 1.98425 1.98425 1.98425 
1.98425 1.98425 1.98425 1.98425 1.98425 1.98425 1.98425 1.98425 1.98425 
1.98425 1.98425 1.98425 1.98425 1.98425 1.98425 1.98425 1.98425 1.98425 
1.98425 1.98425 1.98425 1.98425 1.98425 1.98425 1.98425 1.98425 1.98425 
1.98425 1.98425 1.98425 1.98425 1.98425 1.98425 1.98425 1.98425 1.98425 
1.98425 1.98425 1.98425 1.98425 1.98425 1.98425 1.98425 1.98425 1.98425 
1.98425 1.98425 1.98425 1.98425 1.98425 1.98425 1.98425 1.98425 1.98425 
1.98425 1.98425 1.98425 1.98425 1.98425 1.98425 1.98425 1.98425 1.98425 
1.98425 1.98425 1.98425 1.98425 1.98425 1.98425 1.98425 1.98425 1.98425 
1.98425 1.98425 1.98425 1.98425 1.98425 1.98425 1.98425 1.98425 1.98425 
1.98425 1.98425 1.98425 1.98425 1.98425 1.98425 1.98425 1.98425 1.98425 
1.98425 1.98425 1.98425 1.98425 1.98425 1.97656 1.96891 1.96128 1.95368 
1.94611 1.93858 1.93107 1.92358 1.91613 1.90871 1.90132 1.89395 1.88661 
1.87931 1.87203 1.86477 1.85755 1.85035 1.84319 1.83605 1.82893 1.82185 
1.81479 1.80776 1.80076 1.79378 1.78683 1.77991 1.77302 1.76615 1.75931 
1.75249 1.7457 1.73894 1.7322 1.72549 1.71881 1.71215 1.70552 1.69891 
1.69233 1.68577 1.67924 1.67274 1.66626 1.6598 1.65337 1.64697 1.64059 
1.63423 1.6279 1.62159 1.61531 1.60906 1.60282 1.59661 1.59043 1.58427 
1.57813 1.5749 1.5749 1.5749 1.5749 1.5749 1.5749 1.5749 1.5749 
1.5749 1.5749 1.5749 1.5749 1.5749 1.5749 1.5749 1.5749 1.5749 
1.5749 1.5749 1.5749 1.5749 1.5749 1.5749 1.5749 1.5749 1.5749 
1.5749 1.5749 1.5749 1.5749 1.5749 1.5749 1.5749 1.5749 1.5749 
1.5749 1.5749 1.5749 1.5749 1.5749 1.5749 1.5749 1.5749 1.5749 
1.5749 1.5749 1.5749 1.5749 1.5749 1.5749 1.5749 1.5749 1.5749 
1.5749 1.5749 1.5749 1.5749 1.5749 1.5749 1.5749 1.5749 1.5749 
1.5749 1.5749 1.5749 1.5749 1.5749 1.5749 1.5749 1.5749 1.5749 
1.5749 1.5749 1.5749 1.5749 1.5749 1.5749 1.5749 1.5749 1.5749 
1.5749 1.5749 1.5749 1.5749 1.5749 1.5749 1.5749 1.5749 1.5749 
1.5749 1.5749 1.5749 1.5749 1.5749 1.5749 1.5749 1.5749 1.5749 
1.5749 1.5749 1.5749 1.5749 1.5749 1.5749 1.5749 1.5749 1.5749 
1.5749 1.5749 1.5749 1.5749 1.5749 1.5749 1.5749 1.5749 1.5749 
1.5749 1.5749 1.5749 1.5749 1.5749 1.5749 1.5749 1.5749 1.5749 
1.5749 1.5749 1.5749 1.5749 1.5749 1.5749 1.5749 1.5749 1.5749 
1.5749 1.5749 1.5749 1.5749 1.5749 1.5749 1.5749 1.56722 1.55957 
1.55197 1.54439 1.53686 1.52936 1.5219 1.51448 1.50709 1.49974 1.49242 
1.48514 1.4779 1.47069 1.46351 1.45637 1.44927 1.4422 1.43516 1.42816 
1.42119 1.41426 1.40736 1.4005 1.39366 1.38687 1.3801 1.37337 1.36667 
1.36 1.35337 1.34676 1.34019 1.33366 1.32715 1.32068 1.31423 1.30782 
1.30144 1.29509 1.28878 1.28249 1.27623 1.27001 1.26381 1.25765 1.25151 
1.25 1.25 1.25 1.25 1.25 1.25 1.25 1.25 1.25 
1.25 1.25 1.25 1.25 1.25 1.25 1.25 1.25 1.25 
1.25 1.25 1.25 1.25 1.25 1.25 1.25 1.25 1.25 
1.25 1.25 1.25 1.25 1.25 1.25 1.25 1.25 1.25 
1.25 1.25 1.25 1.25 1.25 1.25 1.25 1.25 1.25 
1.25 1.25 1.25 1.25 1.25 1.25 1.25 1.25 1.25 
1.25 1.25 1.25 1.25 1.25 1.25 1.25 1.25 1.25 
1.25 1.25 1.25 1.25 1.25 1.25 1.25 1.25 1.25 
1.25 1.25 1.25 1.25 1.25 1.25 1.25 1.25 1.25 
1.25 1.25 1.25 1.25 1.25 1.25 1.25 1.25 1.25 
1.25 1.25 1.25 1.25 1.25 1.25 1.25 1.25 1.25 
1.25 1.25 1.25 1.25 1.25 1.25 1.25 1.25 1.25 
1.25 1.25 1.25 1.25 1.25 1.25 1.25 1.25 1.25 
1.25 1.25 1.25 1.25 1.25 1.25 1.25 1.25 1.25 
1.25 1.25 1.25 1.25 1.25 1.25 1.25 1.25 1.25 
1.25 1.25 1.25 1.25 1.25 1.25 1.25 1.25 1.25 
1.25 1.25 1.25 1.25 1.25 1.25 1.25 1.25 1.25 
1.25 1.25 1.25 1.25 1.25 1.25 1.25 1.25 1.25 
1.25 1.25 1.25 1.25 1.25 1.25 1.25 1.25 1.25 
1.25 1.25 1.25 1.25 1.25 1.25 1.25 1.25 1.25 
1.25 1.25 1.25 1.25 1.25 1.25 1.25 1.25 1.25 
1.25 1.25 1.25 1.25 1.25 1.25 1.25 1.25 1.25 
1.25 1.25 1.25 1.25 1.25 1.25 1.25 1.25 1.25 
1.25 1.25 1.25 1.25 1.25 1.25 1.25 1.25 1.25 
1.25 1.25 1.25 1.25 1.25 1.25 1.25 1.25 1.25 
1.25 1.25 1.25 1.25 1.25 1.25 1.25 1.25 1.25 
1.25 1.25 1.25 1.25 1.25 1.25 1.25 1.25 1.25 
1.25 1.25 1.25 1.25 1.25 1.25 1.25 1.25 1.25 
1.25 1.56722 1.55957 1.55197 1.54439 1.53686 1.52936 1.5219 1.51448 
1.50709 1.49974 1.49242 1.48514 1.4779 1.47069 1.46351 1.45637 1.44927 
1.4422 1.43516 1.42816 1.42119 1.41426 1.40736 1.4005 1.39366 1.38687 
1.3801 1.37337 1.36667 1.36 1.35337 1.34676 1.34019 1.33366 1.32715 
1.32068 1.31423 1.30782 1.30144 1.29509 1.28878 1.28249 1.27623 1.27001 
1.26381 1.25765 1.25151 1.25 1.25 1.25 1.25 1.25 1.25 
1.25 1.25 1.25 1.25 1.25 1.25 1.25 1.25 1.25 
1.25 1.25 1.25 1.25 1.25 1.25 1.25 1.25 1.25 
1.25 1.25 1.25 1.25 1.25 1.25 1.25 1.25 1.25 
1.25 1.25 1.25 1.25 1.25 1.25 1.25 1.25 1.25 
1.25 1.25 1.25 1.25 1.25 1.25 1.25 1.25 1.25 
1.25 1.25 1.25 1.25 1.25 1.25 1.25 1.25 1.25 
1.25 1.25 1.25 1.25 1.25 1.25 1.25 1.25 1.25 
1.25 1.25 1.25 1.25 1.25 1.25 1.25 1.25 1.25 
1.25 1.25 1.25 1.25 1.25 1.25 1.25 1.25 1.25 
1.25 1.25 1.25 1.25 1.25 1.25 1.25 1.25 1.25 
1.25 1.25 1.25 1.25 1.25 1.25 1.25 1.25 1.25 
1.25 1.25 1.25 1.25 1.25 1.25 1.25 1.25 1.25 
1.25 1.25 1.25 1.25 1.25 1.25 1.25 1.25 1.25 
1.25 1.25 1.25 1.25 1.25 1.25 1.25 1.25 1.25 
1.25 1.25 1.25 1.25 1.25 1.25 1.25 1.25 1.25 
1.25 1.25 1.25 1.25 1.25 1.25 1.25 1.25 1.25 
1.25 1.25 1.25 1.25 1.25 1.25 1.25 1.25 1.25 
1.25 1.25 1.25 1.25 1.25 1.25 1.25 1.25 1.25 
1.25 1.25 1.25 1.25 1.25 1.25 1.25 1.25 1.25 
1.25 1.25 1.25 1.25 1.25 1.25 1.25 1.25 1.25 
1.25 1.25 1.25 1.25 1.25 1.25 1.25 1.25 1.25 
1.25 1.25 1.25 1.25 1.25 1.25 1.25 1.25 1.25 
1.25 1.25 1.25 1.25 1.25 1.25 1.25 1.25 1.25 
1.25 1.25 1.25 1.25 1.25 1.25 1.25 1.25 1.25 
1.25 1.25 1.25 1.25 1.25 1.25 1.25 1.25 1.25 
1.25 1.25 1.25 1.25 1.25 1.25 1.25 1.25 1.25 
1.25 1.25 1.25 1.25 1.25 1.25 1.25 1.25 1.25 
1.25 1.25 1.25 1.25 1.97656 1.96891 1.96128 1.95368 1.94611 
1.93858 1.93107 1.92358 1.91613 1.90871 1.90132 1.89395 1.88661 1.87931 
1.87203 1.86477 1.85755 1.85035 1.84319 1.83605 1.82893 1.82185 1.81479 
1.80776 1.80076 1.79378 1.78683 1.77991 1.77302 1.76615 1.75931 1.75249 
1.7457 1.73894 1.7322 1.72549 1.71881 1.71215 1.70552 1.69891 1.69233 
1.68577 1.67924 1.67274 1.66626 1.6598 1.65337 1.64697 1.64059 1.63423 
1.6279 1.62159 1.61531 1.60906 1.60282 1.59661 1.59043 1.58427 1.57813 
1.5749 1.5749 1.5749 1.5749 1.5749 1.5749 1.5749 1.5749 1.5749 
1.5749 1.5749 1.5749 1.5749 1.5749 1.5749 1.5749 1.5749 1.5749 
1.5749 1.5749 1.5749 1.5749 1.5749 1.5749 1.5749 1.5749 1.5749 
1.5749 1.5749 1.5749 1.5749 1.5749 1.5749 1.5749 1.5749 1.5749 
1.5749 1.5749 1.5749 1.5749 1.5749 1.5749 1.5749 1.5749 1.5749 
1.5749 1.5749 1.5749 1.5749 1.5749 1.5749 1.5749 1.5749 1.5749 
1.5749 1.5749 1.5749 1.5749 1.5749 1.5749 1.5749 1.5749 1.5749 
1.5749 1.5749 1.5749 1.5749 1.5749 1.5749 1.5749 1.5749 1.5749 
1.5749 1.5749 1.5749 1.5749 1.5749 1.5749 1.5749 1.5749 1.5749 
1.5749 1.5749 1.5749 1.5749 1.5749 1.5749 1.5749 1.5749 1.5749 
1.5749 1.5749 1.5749 1.5749 1.5749 1.5749 1.5749 1.5749 1.5749 
1.5749 1.5749 1.5749 1.5749 1.5749 1.5749 1.5749 1.5749 1.5749 
1.5749 1.5749 1.5749 1.5749 1.5749 1.5749 1.5749 1.5749 1.5749 
1.5749 1.5749 1.5749 1.5749 1.5749 1.5749 1.5749 1.5749 1.5749 
1.5749 1.5749 1.5749 1.5749 1.5749 1.5749 1.5749 1.5749 1.5749 
1.5749 1.5749 1.5749 1.5749 1.5749 1.5749 1.5749 1.5749 1.5749 
1.5749 1.5749 1.5749 1.5749 1.5749 1.5749 1.5749 1.5749 1.5749 
1.5749 1.5749 1.5749 1.5749 1.5749 1.5749 1.5749 1.5749 1.5749 
1.5749 1.5749 1.5749 1.5749 1.5749 1.5749 1.5749 1.5749 1.5749 
1.5749 1.5749 1.5749 1.5749 1.5749 1.5749 1.5749 1.5749 1.5749 
1.5749 1.5749 1.5749 1.5749 1.5749 1.5749 1.5749 1.5749 1.5749 
1.5749 1.5749 1.5749 1.5749 1.5749 1.5749 1.5749 1.5749 1.5749 
1.5749 1.5749 1.5749 1.5749 1.5749 1.5749 1.5749 1.5749 1.5749 
1.5749 1.5749 1.5749 1.5749 1.5749 1.5749 1.5749 1.5749 1.5749 
1.5749 1.5749 1.5749 1.5749 1.5749 1.5749 1.5749 1.5749 1.5749 
1.5749 1.5749 1.5749 1.5749 1.5749 1.5749 1.5749 1.5749 1.5749 
1.5749 1.5749 1.5749 1.5749 1.5749 1.5749 1.5749 1.5749 1.5749 
1.5749 1.5749 1.5749 1.5749 1.5749 1.5749 1.5749 1.5749 1.5749 
1.5749 1.5749 1.5749 1.5749 1.5749 1.5749 1.5749 1.5749 1.5749 
1.5749 1.5749 1.5749 1.5749 1.5749 1.5749 1.5749 1.5749 1.5749 
1.5749 1.5749 1.5749 1.5749 1.5749 1.5749 1.5749 1.5749 1.5749 
1.5749 1.5749 1.5749 1.5749 1.5749 1.5749 1.5749 1.5749 1.5749 
1.5749 1.5749 1.5749 1.5749 1.5749 1.5749 1.5749 1.5749 1.5749 
1.5749 1.5749 1.5749 1.5749 1.5749 1.5749 1.5749 1.5749 1.5749 
1.5749 1.5749 1.5749 1.5749 1.5749 1.5749 1.5749 1.5749 1.5749 
1.5749 1.5749 1.5749 1.5749 1.5749 1.5749 1.5749 1.5749 1.5749 
1.5749 1.5749 1.5749 1.5749 1.5749 1.5749 1.5749 1.5749 1.5749 
1.5749 1.5749 1.5749 1.5749 1.5749 1.5749 1.5749 1.5749 2.49231 
2.48464 2.477 2.46938 2.46179 2.45421 2.44667 2.43914 2.43164 2.42416 
2.4167 2.40927 2.40186 2.39447 2.3871 2.37976 2.37244 2.36514 2.35787 
2.35062 2.34339 2.33618 2.32899 2.32183 2.31469 2.30757 2.30047 2.29339 
2.28634 2.27931 2.2723 2.26531 2.25834 2.25139 2.24447 2.23756 2.23068 
2.22382 2.21698 2.21016 2.20336 2.19658 2.18983 2.18309 2.17638 2.16968 
2.16301 2.15636 2.14972 2.14311 2.13652 2.12995 2.12339 2.11686 2.11035 
2.10386 2.09739 2.09094 2.08451 2.07809 2.0717 2.06533 2.05898 2.05264 
2.04633 2.04004 2.03376 2.02751 2.02127 2.01505 2.00885 2.00267 1.99651 
1.99037 1.98425 1.98425 1.98425 1.98425 1.98425 1.98425 1.98425 1.98425 
1.98425 1.98425 1.98425 1.98425 1.98425 1.98425 1.98425 1.98425 1.98425 
1.98425 1.98425 1.98425 1.98425 1.98425 1.98425 1.98425 1.98425 1.98425 
1.98425 1.98425 1.98425 1.98425 1.98425 1.98425 1.98425 1.98425 1.98425 
1.98425 1.98425 1.98425 1.98425 1.98425 1.98425 1.98425 1.98425 1.98425 
1.98425 1.98425 1.98425 1.98425 1.98425 1.98425 1.98425 1.98425 1.98425 
1.98425 1.98425 1.98425 1.98425 1.98425 1.98425 1.98425 1.98425 1.98425 
1.98425 1.98425 1.98425 1.98425 1.98425 1.98425 1.98425 1.98425 1.98425 
1.98425 1.98425 1.98425 1.98425 1.98425 1.98425 1.98425 1.98425 1.98425 
1.98425 1.98425 1.98425 1.98425 1.98425 1.98425 1.98425 1.98425 1.98425 
1.98425 1.98425 1.98425 1.98425 1.98425 1.98425 1.98425 1.98425 1.98425 
1.98425 1.98425 1.98425 1.98425 1.98425 1.98425 1.98425 1.98425 1.98425 
1.98425 1.98425 1.98425 1.98425 1.98425 1.98425 1.98425 1.98425 1.98425 
1.98425 1.98425 1.98425 1.98425 1.98425 1.98425 1.98425 1.98425 1.98425 
1.98425 1.97656 1.96891 1.96128 1.95368 1.94611 1.93858 1.93107 1.92358 
1.91613 1.90871 1.90132 1.89395 1.88661 1.87931 1.87203 1.86477 1.85755 
1.85035 1.84319 1.83605 1.82893 1.82185 1.81479 1.80776 1.80076 1.79378 
1.78683 1.77991 1.77302 1.76615 1.75931 1.75249 1.7457 1.73894 1.7322 
1.72549 1.71881 1.71215 1.70552 1.69891 1.69233 1.68577 1.67924 1.67274 
1.66626 1.6598 1.65337 1.64697 1.64059 1.63423 1.6279 1.62159 1.61531 
1.60906 1.60282 1.59661 1.59043 1.58427 1.57813 1.5749 1.5749 1.5749 
1.5749 1.5749 1.5749 1.5749 1.5749 1.5749 1.5749 1.5749 1.5749 
1.5749 1.5749 1.5749 1.5749 1.5749 1.5749 1.5749 1.5749 1.5749 
1.5749 1.5749 1.5749 1.5749 1.5749 1.5749 1.5749 1.5749 1.5749 
1.5749 1.5749 1.5749 1.5749 1.5749 1.5749 1.5749 1.5749 1.5749 
1.5749 1.5749 1.5749 1.5749 1.5749 1.5749 1.5749 1.5749 1.5749 
1.5749 1.5749 1.5749 1.5749 1.5749 1.5749 1.5749 1.5749 1.5749 
1.5749 1.5749 1.5749 1.5749 1.5749 1.5749 1.5749 1.5749 1.5749 
1.5749 1.5749 1.5749 1.5749 1.5749 1.5749 1.5749 1.5749 1.5749 
1.5749 1.5749 1.5749 1.5749 1.5749 1.5749 1.5749 1.5749 1.5749 
1.5749 1.5749 1.5749 1.5749 1.5749 1.5749 1.5749 1.5749 1.5749 
1.5749 1.5749 1.5749 1.5749 1.5749 1.5749 1.5749 1.5749 1.5749 
1.5749 1.5749 1.5749 1.5749 1.5749 1.5749 1.5749 1.5749 1.5749 
1.5749 1.5749 1.5749 1.5749 1.5749 1.5749 1.5749 1.5749 1.5749 
1.5749 1.5749 1.5749 1.5749 1.5749 1.5749 1.5749 1.5749 1.5749 
1.5749 1.5749 1.5749 1.5749 1.5749 1.5749 1.5749 1.5749 1.5749 
1.5749 1.5749 1.5749 1.5749 1.5749 1.5749 1.5749 1.5749 1.5749 
1.5749 1.5749 1.5749 1.5749 1.5749 1.5749 1.5749 1.5749 1.5749 
1.5749 1.5749 1.5749 1.5749 1.5749 1.5749 1.5749 1.5749 1.5749 
1.5749 1.5749 1.5749 1.5749 1.5749 1.5749 1.5749 1.5749 1.5749 
1.5749 1.5749 1.5749 1.5749 1.5749 1.5749 1.5749 1.5749 1.5749 
1.5749 1.5749 1.5749 1.5749 1.5749 1.5749 1.5749 1.5749 1.5749 
1.5749 1.5749 1.5749 1.5749 1.5749 1.5749 1.5749 1.5749 1.5749 
1.5749 1.5749 1.5749 1.5749 1.5749 1.5749 1.5749 1.5749 1.5749 
1.5749 1.5749 1.5749 1.5749 1.5749 1.5749 1.5749 1.5749 1.5749 
1.5749 1.5749 1.5749 1.5749 1.5749 1.5749 1.5749 1.5749 1.5749 
1.5749 1.5749 1.5749 1.5749 1.5749 1.5749 1.5749 1.5749 1.5749 
1.5749 1.5749 1.5749 1.5749 1.5749 1.5749 1.5749 1.5749 1.5749 
1.5749 1.5749 1.5749 1.5749 1.5749 1.5749 1.5749 1.5749 1.5749 
1.5749 1.5749 1.5749 1.5749 1.5749 1.5749 1.5749 1.5749 1.5749 
1.5749 1.5749 1.5749 1.5749 1.5749 1.5749 1.5749 1.5749 1.5749 
1.5749 1.5749 1.5749 1.5749 1.5749 1.5749 1.5749 1.5749 1.5749 
1.5749 1.5749 1.5749 1.5749 1.5749 1.5749 1.5749 1.5749 1.5749 
1.5749 1.5749 1.5749 1.5749 1.5749 1.5749 1.5749 1.5749 1.5749 
1.5749 1.5749 1.5749 1.5749 1.5749 1.5749 1.5749 1.5749 1.5749 
1.5749 1.5749 1.5749 1.5749 1.5749 1.5749 1.5749 1.5749 1.5749 
1.5749 1.5749 1.5749 1.5749 1.5749 1.5749 1.5749 1.5749 1.5749 
1.5749 1.5749 1.5749 1.5749 1.5749 1.5749 1.5749 1.5749 1.5749 
1.5749 1.5749 1.5749 1.5749 1.5749 1.5749 1.5749 1.5749 1.5749 
1.5749 1.5749 1.5749 1.5749 1.5749 1.5749 1.5749 1.5749 1.5749 
1.5749 1.5749 1.5749 1.5749 1.5749 1.5749 1.5749 1.5749 1.5749 
1.5749 1.5749 1.5749 1.5749 1.5749 1.5749 1.5749 1.5749 1.5749 
1.5749 1.5749 1.5749 1.5749 1.5749 1.5749 1.5749 1.5749 1.5749 
1.5749 1.5749 1.5749 1.5749 1.5749 1.5749 1.5749 1.5749 1.5749 
1.5749 1.5749 1.5749 1.5749 1.5749 1.5749 1.5749 1.5749 1.5749 
1.5749 1.5749 1.5749 1.5749 1.5749 1.5749 1.5749 1.5749 1.5749 
1.5749 1.5749 1.5749 1.5749 1.5749 1.5749 1.5749 1.5749 1.5749 
1.5749 1.5749 1.5749 1.5749 1.5749 1.5749 1.5749 1.5749 1.5749 
1.5749 1.5749 1.5749 1.5749 1.5749 1.5749 1.5749 1.5749 1.5749 
1.5749 1.5749 1.5749 1.5749 1.5749 1.5749 1.97656 1.96891 1.96128 
1.95368 1.94611 1.93858 1.93107 1.92358 1.91613 1.90871 1.90132 1.89395 
1.88661 1.87931 1.87203 1.86477 1.85755 1.85035 1.84319 1.83605 1.82893 
1.82185 1.81479 1.80776 1.80076 1.79378 1.78683 1.77991 1.77302 1.76615 
1.75931 1.75249 1.7457 1.73894 1.7322 1.72549 1.71881 1.71215 1.70552 
1.69891 1.69233 1.68577 1.67924 1.67274 1.66626 1.6598 1.65337 1.64697 
1.64059 1.63423 1.6279 1.62159 1.61531 1.60906 1.60282 1.59661 1.59043 
1.58427 1.57813 1.5749 1.5749 1.5749 1.5749 1.5749 1.5749 1.5749 
1.5749 1.5749 1.5749 1.5749 1.5749 1.5749 1.5749 1.5749 1.5749 
1.5749 1.5749 1.5749 1.5749 1.5749 1.5749 1.5749 1.5749 1.5749 
1.5749 1.5749 1.5749 1.5749 1.5749 1.5749 1.5749 1.5749 1.5749 
1.5749 1.5749 1.5749 1.5749 1.5749 1.5749 1.5749 1.5749 1.5749 
1.5749 1.5749 1.5749 1.5749 1.5749 1.5749 1.5749 1.5749 1.5749 
1.5749 1.5749 1.5749 1.5749 1.5749 1.5749 1.5749 1.5749 1.5749 
1.5749 1.5749 1.5749 1.5749 1.5749 1.5749 1.5749 1.5749 1.5749 
1.5749 1.5749 1.5749 1.5749 1.5749 1.5749 1.5749 1.5749 1.5749 
1.5749 1.5749 1.5749 1.5749 1.5749 1.5749 1.5749 1.5749 1.5749 
1.5749 1.5749 1.5749 1.5749 1.5749 1.5749 1.5749 1.5749 1.5749 
1.5749 1.5749 1.5749 1.5749 1.5749 1.5749 1.5749 1.5749 1.5749 
1.5749 1.5749 1.5749 1.5749 1.5749 1.5749 1.5749 1.5749 1.5749 
1.5749 1.5749 1.5749 1.5749 1.5749 1.5749 1.5749 1.5749 1.5749 
1.5749 1.5749 1.5749 1.5749 1.5749 1.5749 1.5749 1.5749 1.5749 
1.5749 1.5749 1.5749 1.5749 1.5749 1.5749 1.5749 1.5749 1.5749 
1.5749 1.5749 1.5749 1.5749 1.5749 1.5749 1.5749 1.5749 1.5749 
1.5749 1.5749 1.5749 1.5749 1.5749 1.5749 1.5749 1.5749 1.5749 
1.5749 1.5749 1.5749 1.5749 1.5749 1.5749 1.5749 1.5749 1.5749 
1.5749 1.5749 1.5749 1.5749 1.5749 1.5749 1.5749 1.5749 1.5749 
1.5749 1.5749 1.5749 1.5749 1.5749 1.5749 1.5749 1.5749 1.5749 
1.5749 1.5749 1.5749 1.5749 1.5749 1.5749 1.5749 1.5749 1.5749 
1.5749 1.5749 1.5749 1.5749 1.5749 1.5749 1.5749 1.5749 1.5749 
1.5749 1.5749 1.5749 1.5749 1.5749 1.5749 1.5749 1.5749 1.5749 
1.5749 1.5749 1.5749 1.5749 1.5749 1.5749 1.5749 1.5749 1.5749 
1.5749 1.5749 1.5749 1.5749 1.5749 1.5749 1.5749 1.5749 1.5749 
1.5749 1.5749 1.5749 1.5749 1.5749 1.5749 1.5749 1.5749 1.5749 
1.56722 1.55957 1.55197 1.54439 1.53686 1.52936 1.5219 1.51448 1.50709 
1.49974 1.49242 1.48514 1.4779 1.47069 1.46351 1.45637 1.44927 1.4422 
1.43516 1.42816 1.42119 1.41426 1.40736 1.4005 1.39366 1.38687 1.3801 
1.37337 1.36667 1.36 1.35337 1.34676 1.34019 1.33366 1.32715 1.32068 
1.31423 1.30782 1.30144 1.29509 1.28878 1.28249 1.27623 1.27001 1.26381 
1.25765 1.25151 1.25 1.25 1.25 1.25 1.25 1.25 1.25 
1.25 1.25 1.25 1.25 1.25 1.25 1.25 1.25 1.25 
1.25 1.25 1.25 1.25 1.25 1.25 1.25 1.25 1.25 
1.25 1.25 1.25 1.25 1.25 1.25 1.25 1.25 1.25 
1.25 1.25 1.25 1.25 1.25 1.25 1.25 1.25 1.25 
1.25 1.25 1.25 1.25 1.25 1.25 1.25 1.25 1.25 
1.25 1.25 1.25 1.25 1.25 1.25 1.25 1.25 1.25 
1.25 1.25 1.25 1.25 1.25 1.25 1.25 1.25 1.25 
1.25 1.25 1.25 1.25 1.25 1.25 1.25 1.25 1.25 
1.25 1.25 1.25 1.25 1.25 1.25 1.25 1.25 1.25 
1.25 1.25 1.25 1.25 1.25 1.25 1.25 1.25 1.25 
1.25 1.25 1.25 1.25 1.25 1.25 1.25 1.25 1.25 
1.25 1.25 1.25 1.25 1.25 1.25 1.25 1.25 1.25 
1.25 1.25 1.25 1.25 1.25 1.25 1.25 1.25 1.25 
1.25 1.25 1.25 1.25 1.25 1.25 1.25 1.25 1.25 
1.25 1.25 1.25 1.25 1.25 1.25 1.25 1.25 1.25 
1.25 1.25 1.25 1.25 1.25 1.25 1.25 1.25 1.25 
1.25 1.25 1.25 1.25 1.25 1.25 1.25 1.25 1.25 
1.25 1.25 1.25 1.25 1.25 1.25 1.25 1.25 1.25 
1.25 1.25 1.25 1.25 1.25 1.25 1.25 1.25 1.25 
1.25 1.25 1.25 1.25 1.25 1.25 1.25 1.25 1.25 
1.25 1.25 1.25 1.25 1.25 1.25 1.25 1.25 1.25 
1.25 1.25 1.25 1.25 1.25 1.25 1.25 1.25 1.25 
1.25 1.25 1.25 1.25 1.25 1.25 1.25 1.25 1.25 
1.25 1.25 1.25 1.25 1.25 1.25 1.25 1.25 1.25 
1.25 1.25 1.25 1.25 1.25 1.25 1.25 1.25 1.25 
1.25 1.25 1.25 1.25 1.25 1.25 1.25 1.25 1.25 
1.25 1.25 1.25 1.25 1.25 1.25 1.25 1.25 1.25 
1.25 1.25 1.25 1.25 1.25 1.25 1.25 1.25 1.25 
1.25 1.25 1.25 1.25 1.25 1.25 1.25 1.25 1.25 
1.25 1.25 1.25 1.25 1.25 1.25 1.25 1.25 1.25 
1.25 1.25 1.25 1.25 1.25 1.25 1.25 1.25 1.25 
1.25 1.25 1.25 1.25 1.25 1.25 1.25 1.25 1.25 
1.25 1.25 1.25 1.25 1.25 1.25 1.25 1.25 1.25 
1.25 1.25 1.25 1.25 1.25 1.25 1.25 1.25 1.25 
1.25 1.25 1.25 1.25 1.25 1.25 1.25 1.25 1.25 
1.25 1.25 1.25 1.25 1.25 1.25 1.25 1.25 1.25 
1.25 1.25 1.25 1.25 1.25 1.25 1.25 1.25 1.25 
1.25 1.25 1.25 1.25 1.25 1.25 1.25 1.25 1.25 
1.25 1.25 1.25 1.25 1.56722 1.55957 1.55197 1.54439 1.53686 
1.52936 1.5219 1.51448 1.50709 1.49974 1.49242 1.48514 1.4779 1.47069 
1.46351 1.45637 1.44927 1.4422 1.43516 1.42816 1.42119 1.41426 1.40736 