# vtk DataFile Version 3.0
vtk output
ASCII
DATASET POLYDATA
POINTS 739 float
0 0 0 1.10639 -0.0921299 0 1.41398 -0.33931 1.10059 
2.24544 -0.26776 2 3.38887 -0.67614 1.7002 4.44252 -0.3349 2.2002 
5.57995 0.0428801 2.5 6.72079 0.35948 2.5 7.85164 0.59994 2.40039 
8.88098 0.80619 2.40039 9.82817 0.94055 2.40039 10.5986 0.63074 2.60059 
11.2517 0.25662 2.90039 11.7502 -0.2378 3 11.9918 -0.84496 3.10059 
12.0104 -1.43886 3.10059 12.4076 -1.84211 3.2002 12.9261 -2.1088 3.40039 
13.4475 -2.42472 3.5 14.0689 -2.63344 3.60059 14.7112 -2.85349 3.7002 
15.3686 -3.07694 3.7998 16.035 -3.29862 3.90039 16.7133 -3.51206 4.10059 
17.4155 -3.71836 4.2998 18.1834 -3.88069 4.40039 19.0083 -4.00602 4.40039 
19.8393 -4.13194 4.40039 20.6332 -4.3674 4.2998 21.3969 -4.64588 4.2998 
22.1557 -4.93752 4.2998 22.9173 -5.20847 4.40039 23.6768 -5.40067 4.5 
24.4335 -5.58963 4.7002 25.1574 -5.81446 4.7998 25.8456 -6.07673 4.7998 
26.4985 -6.42206 4.90039 27.1306 -6.81093 4.90039 27.756 -7.24303 5 
28.3604 -7.76023 5.10059 28.9694 -8.30953 5.2998 29.499 -8.97513 5.40039 
30.0577 -9.65023 5.60059 30.6793 -10.2686 5.7998 31.3012 -10.8531 6 
31.9061 -11.4419 6.10059 32.5117 -12.0591 6.2998 33.14 -12.709 6.40039 
33.7686 -13.3601 6.40039 34.3462 -13.8971 6.2002 34.786 -14.2698 5.7002 
35.1973 -14.7142 5.40039 35.5602 -15.2752 5.40039 35.8835 -15.8458 5.5 
36.1841 -16.4003 5.7998 36.5438 -16.9079 6.10059 36.5937 -17.501 6.2002 
36.8727 -17.9639 6.40039 37.1834 -18.4371 6.60059 37.5007 -18.9239 6.7002 
37.8221 -19.419 6.7998 38.186 -19.9038 6.90039 38.6481 -20.3064 7 
39.1543 -20.638 7.10059 39.6539 -20.9123 7.2002 40.1256 -21.1467 7.40039 
40.5733 -21.3668 7.60059 40.888 -21.7793 7.60059 41.1461 -22.223 7.60059 
41.3935 -22.6642 7.60059 41.6164 -23.1 7.5 41.7528 -23.5442 7.2998 
41.8483 -24.0177 7.2002 41.9536 -24.4873 7 42.0601 -24.9601 6.90039 
42.2094 -25.4238 6.90039 42.4261 -25.8537 6.7998 42.6925 -26.2414 6.7002 
42.9711 -26.6174 6.7002 43.2478 -26.9934 6.60059 43.5244 -27.3712 6.5 
43.7967 -27.7578 6.5 44.0594 -28.1568 6.40039 44.2995 -28.5752 6.40039 
44.5169 -29.0099 6.2998 44.7326 -29.4509 6.2998 44.9623 -29.8901 6.2998 
45.2036 -30.3252 6.2998 45.4467 -30.762 6.2998 45.6592 -31.222 6.2002 
45.8516 -31.7006 6.2002 46.0037 -32.2022 6.10059 46.1767 -32.7332 6 
46.3551 -33.2658 5.90039 46.5378 -33.8035 5.7998 46.7283 -34.3534 5.60059 
46.9126 -34.9202 5.40039 47.0769 -35.4953 5.10059 47.2337 -36.0649 4.90039 
47.3686 -36.6468 4.7002 47.4956 -37.2288 4.40039 47.5852 -37.8317 4.2002 
47.6109 -38.4714 4 47.6287 -39.1033 3.7998 47.5807 -39.7492 3.60059 
47.5279 -40.3929 3.40039 47.4771 -41.0577 3.10059 47.4631 -41.7615 2.7002 
47.5462 -42.4555 2.2002 47.6101 -43.2806 1.60059 47.7251 -44.2014 1 
48.0966 -45.2092 0.400391 47.4002 -46.0713 -0.200195 47.1252 -46.9628 -0.799805 
46.9772 -47.8083 -1.2998 46.8131 -48.5966 -1.7002 46.6901 -49.3113 -2.09961 
46.6197 -49.9686 -2.39941 46.5776 -50.5532 -2.7002 46.5304 -51.1138 -2.89941 
46.4232 -51.5812 -3.2002 46.2719 -51.971 -3.5 46.1613 -52.3234 -3.7998 
46.0991 -52.6579 -4.2002 46.0463 -53.0015 -4.5 46.0375 -53.3487 -4.89941 
46.0085 -53.7385 -5.2998 45.9713 -54.1303 -5.59961 45.8733 -54.5296 -5.89941 
45.8127 -54.9666 -6.2998 45.7834 -55.4402 -6.7002 45.7262 -55.8439 -7.2002 
45.6553 -56.2888 -7.5 45.58 -56.6883 -7.89941 45.5345 -57.0898 -8.2998 
45.5157 -57.5068 -8.7002 45.5234 -57.9274 -9.09961 45.5324 -58.3331 -9.39941 
45.5459 -58.7462 -9.7998 45.5728 -59.1576 -10.2002 45.602 -59.5638 -10.7002 
45.6395 -59.968 -11.0996 45.6514 -60.4136 -11.3994 45.6589 -60.8805 -11.7998 
45.6581 -61.3626 -12.0996 45.6453 -61.8401 -12.3994 45.6584 -62.305 -12.7998 
45.6693 -62.7673 -13.2002 45.6826 -63.2233 -13.5 45.7073 -63.6775 -13.8994 
45.7469 -64.1339 -14.2998 45.8463 -64.5806 -14.7002 45.9458 -65.0037 -15.0996 
46.0353 -65.4159 -15.5 46.0809 -65.8049 -15.8994 46.1377 -66.1853 -16.2002 
46.1716 -66.5708 -16.5996 46.1827 -66.9872 -17 46.177 -67.4348 -17.3994 
46.1734 -67.8984 -17.7002 46.1791 -68.3578 -18.0996 46.2118 -68.7969 -18.3994 
46.2742 -69.2222 -18.7002 46.3453 -69.6442 -19 46.4233 -70.0738 -19.2998 
46.5101 -70.4998 -19.5996 46.6142 -70.9417 -19.8994 46.7516 -71.3952 -20.2002 
46.9066 -71.8643 -20.5 47.1154 -72.3229 -20.7998 47.3314 -72.7687 -21.0996 
47.5561 -73.1569 -21.5 47.7857 -73.5411 -21.7998 47.9855 -73.8893 -22.0996 
48.1326 -74.1969 -22.3994 48.2595 -74.5067 -22.7998 48.3836 -74.7974 -23.2002 
48.4914 -75.0825 -23.5 48.5874 -75.3498 -23.8994 48.6882 -75.6052 -24.2998 
48.7745 -75.8588 -24.5996 48.8827 -76.0926 -25 48.9765 -76.3331 -25.3994 
49.0665 -76.5902 -25.7002 49.1378 -76.8141 -26.0996 49.2243 -77.0322 -26.5 
49.264 -77.1491 -27 49.2714 -77.2621 -27.5 49.283 -77.4222 -28 
49.3272 -77.637 -28.5 49.457 -77.9562 -28.8994 49.604 -78.2856 -29.2998 
49.7128 -78.5994 -29.7002 49.7963 -78.8822 -30.2002 49.8028 -79.0698 -30.5996 
49.9113 -79.244 -31.0996 50.251 -79.3597 -31.3994 50.4106 -79.4765 -31.7998 
50.5289 -79.6005 -32.2002 50.6067 -79.7406 -32.5996 50.703 -79.9107 -33 
50.6824 -80.0952 -33.2998 50.6153 -80.2747 -33.7002 50.5398 -80.4503 -34 
50.4884 -80.6251 -34.3994 50.4499 -80.7923 -34.7002 50.4035 -80.9569 -35.0996 
50.3493 -81.1446 -35.3994 50.2583 -81.3425 -35.7002 50.139 -81.5407 -36 
49.9871 -81.7241 -36.3994 49.8695 -81.9139 -36.7002 49.8032 -82.0971 -37.0996 
49.7504 -82.2673 -37.5 49.6891 -82.4294 -37.7998 49.6716 -82.5885 -38.2002 
49.712 -82.751 -38.7002 49.8854 -82.9667 -39 50.1378 -82.9915 -39.3994 
50.3917 -83.1627 -39.7998 50.6798 -83.4009 -40.2002 50.8481 -83.5079 -40.5996 
51.0734 -83.7405 -41.0996 37.1583 -16.8551 6.60059 37.6839 -16.5068 6.90039 
37.9911 -15.9534 6.90039 38.5473 -15.9428 7 39.0588 -16.0211 7.10059 
39.5338 -16.1402 7.2002 40.0055 -16.2579 7.2998 40.4762 -16.4124 7.5 
40.9562 -16.5817 7.5 41.4555 -16.7511 7.5 41.9865 -16.864 7.5 
42.4442 -17.2277 7.5 43.0142 -17.2161 7.2998 43.5998 -17.2468 7.2002 
44.0544 -17.6451 7.2002 44.5012 -18.1043 7.2002 44.9561 -18.565 7.2002 
45.4434 -19.0006 7.2002 45.9332 -19.4189 7.10059 46.4319 -19.8116 7 
46.939 -20.1903 7 47.4366 -20.5626 7 47.9162 -20.9364 7.10059 
48.3624 -21.3133 7.10059 48.7859 -21.6825 7.10059 49.1592 -22.0442 7 
49.5095 -22.3947 6.90039 49.8539 -22.7258 6.7998 50.1857 -23.061 6.60059 
50.507 -23.4089 6.5 50.8178 -23.77 6.2998 51.1222 -24.1403 6.10059 
51.434 -24.5045 6 51.76 -24.8543 5.7998 52.1028 -25.1992 5.60059 
52.4503 -25.5526 5.40039 52.7805 -25.9367 5.2002 53.0856 -26.3512 5.10059 
53.3927 -26.7656 5 53.6998 -27.1633 4.7998 54.0055 -27.5318 4.7002 
54.3158 -27.8717 4.5 54.6235 -28.2042 4.2998 54.9292 -28.5428 4.10059 
55.2599 -28.9054 3.90039 55.6399 -29.2944 3.7002 56.0533 -29.723 3.40039 
56.4875 -30.2008 3 56.8694 -30.7796 2.60059 57.2586 -31.4727 2.2002 
57.7208 -32.1588 1.60059 58.437 -32.8083 1.10059 59.2939 -33.3452 0.299805 
60.0398 -34.0502 -0.299805 60.7069 -34.7966 -0.799805 61.2372 -35.5733 -1.2002 
61.7296 -36.2043 -1.59961 62.2147 -36.7284 -2 62.4296 -37.3786 -2.2002 
62.5783 -37.9686 -2.5 62.8213 -38.4499 -2.7002 63.0946 -38.8321 -3 
63.344 -39.1813 -3.2002 63.5739 -39.5356 -3.39941 63.7824 -39.9019 -3.7002 
63.9792 -40.2783 -3.89941 64.1726 -40.6458 -4.2002 64.3854 -41.0001 -4.39941 
64.6125 -41.339 -4.59961 64.8424 -41.679 -4.7998 65.0731 -42.017 -5 
65.3053 -42.3611 -5.2998 65.5307 -42.6981 -5.5 65.7565 -43.0394 -5.7002 
65.9831 -43.3649 -6 66.2173 -43.6757 -6.2002 66.462 -43.976 -6.5 
66.7104 -44.2672 -6.7002 66.9617 -44.5625 -7 67.2126 -44.8534 -7.2002 
67.4687 -45.1616 -7.5 67.7284 -45.4558 -7.7998 68.0338 -45.7141 -8 
68.3229 -45.9942 -8.2998 68.6387 -46.2749 -8.59961 68.9839 -46.5439 -8.7998 
69.3448 -46.7892 -9.09961 69.696 -47.0222 -9.39941 70.0259 -47.2462 -9.7002 
70.3458 -47.4538 -10 70.6792 -47.6426 -10.2002 71.0199 -47.8243 -10.5 
71.3493 -48.0051 -10.7998 71.6582 -48.1888 -11 71.9628 -48.3633 -11.2998 
72.2745 -48.5195 -11.5996 72.5768 -48.6717 -11.7998 72.8674 -48.8222 -12.0996 
73.1369 -49.0054 -12.2998 73.41 -49.2133 -12.5996 73.721 -49.371 -12.8994 
74.013 -49.534 -13.0996 74.2959 -49.6771 -13.3994 74.5731 -49.8394 -13.5996 
74.8367 -50.0174 -13.8994 75.0921 -50.2148 -14.2002 75.3454 -50.415 -14.5 
75.5988 -50.6153 -14.7002 75.8469 -50.8062 -15 76.0873 -51.0013 -15.2998 
76.3056 -51.2218 -15.5996 76.5108 -51.449 -15.7998 76.7175 -51.6679 -16.0996 
76.926 -51.8809 -16.2998 77.1344 -52.094 -16.5996 77.3241 -52.3286 -16.7998 
77.4915 -52.5684 -17.0996 77.656 -52.8052 -17.2998 77.8366 -53.0182 -17.5996 
78.0415 -53.2224 -17.8994 78.2549 -53.4011 -18.0996 78.4776 -53.5578 -18.3994 
78.7074 -53.7103 -18.7002 78.9397 -53.8594 -19 79.1895 -54.0143 -19.2998 
79.4328 -54.1655 -19.5 79.6542 -54.2965 -19.7998 79.8634 -54.4249 -20 
80.081 -54.4979 -20.2998 80.3269 -54.5028 -20.5 80.5215 -54.5353 -20.7998 
80.6993 -54.5781 -21 80.8815 -54.6388 -21.2998 81.0581 -54.7315 -21.5 
81.1674 -54.863 -21.7998 81.2553 -55.0491 -22 81.3093 -55.234 -22.2998 
81.458 -55.4486 -22.5 81.6296 -55.6516 -22.7002 81.8319 -55.7568 -22.8994 
82.0939 -55.6426 -23.2002 82.3593 -55.6317 -23.5 82.6056 -55.6305 -23.7002 
82.8263 -55.6433 -24 83.0571 -55.6716 -24.2998 83.293 -55.7157 -24.5 
83.5217 -55.7429 -24.7002 83.75 -55.7613 -24.8994 83.9724 -55.7626 -25.0996 
84.1741 -55.8185 -25.3994 84.3781 -55.9015 -25.5996 84.5744 -55.9868 -25.7998 
84.761 -56.0406 -26 84.9101 -56.0821 -26.2002 85.0322 -56.1593 -26.5 
85.2284 -56.2213 -26.7002 85.4173 -56.1877 -26.8994 85.5914 -56.1135 -27.0996 
85.7209 -56.1272 -27.2998 85.8534 -56.1379 -27.5 85.9795 -56.1685 -27.7002 
86.0492 -56.3688 -27.7998 86.1734 -56.4904 -28 86.2632 -56.5722 -28.2998 
86.3762 -56.6975 -28.5996 86.5018 -56.8465 -28.7998 86.6311 -56.8987 -29.0996 
86.7922 -56.8786 -29.2998 86.9448 -56.8682 -29.5996 87.0986 -56.802 -29.7998 
87.153 -56.7649 -30 87.1985 -56.7291 -30.2998 87.2544 -56.6901 -30.5 
87.523 -56.7124 -30.5996 87.6774 -56.6841 -30.8994 87.8365 -56.6429 -31.0996 
88.03 -56.6605 -31.3994 88.2174 -56.6543 -31.7002 88.4046 -56.636 -32 
88.5964 -56.6292 -32.2998 88.8025 -56.6496 -32.5 88.9931 -56.6225 -32.7998 
89.1495 -56.5827 -33.2002 89.2756 -56.546 -33.5 89.4009 -56.5516 -33.8994 
89.4852 -56.5297 -34.2002 89.5642 -56.4684 -34.5996 89.6158 -56.3845 -34.8994 
89.6455 -56.1585 -35.2002 89.5973 -55.8949 -35.3994 89.5967 -55.7897 -35.5996 
89.6364 -55.6781 -35.8994 89.7043 -55.5472 -36.2002 89.782 -55.4475 -36.3994 
89.6848 -55.31 -36.5996 89.625 -55.1774 -36.8994 89.6438 -54.9941 -37.0996 
89.5378 -54.7137 -37.0996 89.4133 -54.4293 -37.2002 89.2716 -54.142 -37.2002 
89.1281 -53.8589 -37.2002 89.0989 -53.652 -37.5 88.8977 -53.4619 -37.3994 
88.7527 -53.2572 -37.3994 88.5857 -53.0768 -37.3994 88.4595 -52.8812 -37.2998 
88.3156 -52.709 -37.0996 88.1644 -52.5702 -37 88.0905 -52.4384 -36.7998 
88.0168 -52.2728 -36.5996 88.0422 -52.3064 -36.3994 87.8923 -52.1429 -36.2002 
87.6973 -51.9538 -36.0996 87.5249 -51.7146 -36 87.2789 -51.4923 -36.0996 
87.039 -51.2793 -36.0996 86.8084 -51.0665 -36.2002 86.5767 -50.8596 -36.2002 
86.3416 -50.6555 -36.2002 86.1027 -50.4682 -36.0996 85.8336 -50.3149 -36 
85.5073 -50.1573 -35.8994 85.131 -50.073 -35.8994 10.8974 1.60544 2 
11.5704 2.0739 1.5 12.2703 2.4592 1.10059 12.9439 2.8368 0.600586 
13.6018 3.22097 0.200195 14.262 3.61888 -0.299805 14.9198 4.01493 -0.799805 
15.5621 4.4071 -1.2998 16.1758 4.82491 -1.7998 16.7611 5.27802 -2.2998 
17.3178 5.76409 -2.7998 17.8621 6.25198 -3.2998 18.399 6.72355 -3.7998 
18.9022 7.19396 -4.2998 19.3876 7.67813 -4.7002 19.8489 8.1852 -5.2002 
20.254 8.75027 -5.7002 20.6373 9.38573 -6.09961 20.9929 10.0306 -6.39941 
21.1827 10.703 -6.59961 21.2626 11.3613 -6.59961 21.5014 11.9268 -6.7002 
21.8522 12.3925 -6.7998 22.2229 12.8126 -7 22.6107 13.2008 -7.2002 
23.0275 13.4659 -7 23.4876 13.6363 -7 23.9487 13.8146 -6.89941 
24.4215 13.9808 -6.89941 24.9074 14.1651 -6.7998 25.3223 14.4448 -6.7002 
25.7246 14.7446 -6.7002 26.0662 15.0348 -6.89941 26.2564 15.2503 -7.2002 
26.5801 15.5348 -7.2002 26.9028 15.7855 -7.2998 27.1788 16.0802 -7.2998 
27.4952 16.3599 -7.2998 27.8053 16.6603 -7.2998 28.0747 17.0254 -7.2998 
28.383 17.3766 -7.2002 28.6891 17.7303 -7.09961 28.9966 18.0868 -7 
29.3097 18.4459 -6.89941 29.647 18.7854 -6.7998 30.0387 19.0384 -6.7998 
30.4325 19.2501 -6.7998 30.8176 19.4521 -6.7998 31.1852 19.6739 -6.7998 
31.5363 19.9091 -6.7998 31.8872 20.1334 -6.7002 32.2421 20.3466 -6.7002 
32.5901 20.5785 -6.7002 32.931 20.8167 -6.7002 33.2922 21.0326 -6.7002 
33.6642 21.2406 -6.7002 34.0351 21.4546 -6.7002 34.4055 21.6529 -6.7002 
34.742 21.8505 -6.7002 35.0763 21.9658 -6.59961 35.4214 22.1066 -6.5 
35.7767 22.2464 -6.5 36.1434 22.3909 -6.5 36.5221 22.508 -6.5 
36.9048 22.6219 -6.5 37.289 22.7434 -6.39941 37.6723 22.8675 -6.39941 
38.0648 22.9715 -6.2998 38.4842 23.0667 -6.2998 38.9405 23.212 -6.2998 
39.4604 23.3264 -6.2998 40.0519 23.3406 -6.2002 40.7092 23.3301 -6.2002 
41.4391 23.3644 -6.2002 42.2503 23.398 -6.2002 43.134 23.346 -6.39941 
44.0723 23.1961 -6.7002 45.0059 23.0059 -7.2998 45.902 22.5899 -8 
46.214 22.5626 -9.2002 46.7853 22.6045 -10.2002 47.4936 22.9201 -10.7998 
48.039 23.0245 -11.5 48.537 22.9722 -12.2002 49.0932 22.8219 -12.5996 
49.6071 22.6597 -13 50.0852 22.5229 -13.2998 50.5049 22.424 -13.5996 
50.8849 22.36 -13.8994 51.235 22.2741 -14.0996 51.5749 22.1471 -14.2998 
51.9082 21.9969 -14.5 52.2298 21.8358 -14.7998 52.5289 21.67 -15 
52.8499 21.5892 -15.2002 53.1447 21.4499 -15.5 53.42 21.2943 -15.7002 
53.701 21.1491 -16 53.9079 20.9095 -16.2002 54.2422 20.8636 -16.5 
54.5685 20.8345 -16.7998 54.8507 20.7431 -17.0996 55.1106 20.6056 -17.3994 
55.3791 20.4706 -17.7002 55.6971 20.3155 -18 56.0238 20.304 -18.2002 
56.3251 20.3233 -18.5 56.5753 20.3071 -18.7002 56.8108 20.2428 -19 
57.0347 20.1311 -19.2002 57.2307 20.0032 -19.3994 57.4708 19.9164 -19.7002 
57.7384 19.8477 -19.8994 58.0125 19.7461 -20.0996 58.2984 19.6425 -20.3994 
58.6013 19.5614 -20.5996 58.9019 19.5144 -20.8994 59.1823 19.4849 -21.2002 
59.4558 19.4718 -21.5 59.7419 19.4833 -21.8994 60.03 19.5125 -22.2002 
60.2946 19.5209 -22.5996 60.5566 19.4339 -23 60.8344 19.286 -23.2998 
61.1375 19.1519 -23.5996 61.4324 19.0368 -24 61.6969 18.9218 -24.3994 
61.943 18.8486 -24.7998 62.2001 18.7938 -25.0996 62.4657 18.737 -25.5 
62.7329 18.6477 -25.8994 63.0046 18.5208 -26.2002 63.296 18.3785 -26.3994 
63.5774 18.222 -26.7002 63.839 18.0463 -27 64.0746 17.8611 -27.2998 
64.288 17.6958 -27.5996 64.5376 17.4811 -27.8994 64.7966 17.2786 -28.0996 
65.0597 17.0992 -28.3994 65.3266 16.9231 -28.7002 65.5994 16.7516 -28.8994 
65.8769 16.5842 -29.2002 66.1673 16.4352 -29.3994 66.4508 16.3029 -29.7998 
66.7126 16.1478 -30.0996 66.9671 15.9931 -30.3994 67.2096 15.813 -30.7998 
67.432 15.5926 -31.0996 67.6946 15.3785 -31.5 67.9724 15.1892 -31.7998 
68.2587 14.9767 -32.0996 68.4981 14.9623 -32.5996 68.7026 14.9053 -33 
68.9092 14.6983 -33.3994 69.1076 14.401 -33.7002 69.3781 14.1289 -34 
69.6217 13.9014 -34.2998 69.8543 13.7214 -34.5996 70.022 13.445 -34.8994 
70.0844 13.0157 -35 70.2316 12.5525 -35 70.4257 12.1329 -35.0996 
70.6606 11.7269 -35.2002 71.0392 11.5971 -35.3994 71.3581 11.5388 -35.7002 
71.5042 11.4378 -36.0996 71.6593 11.3483 -36.5996 71.7938 11.187 -37 
71.8716 10.9475 -37.3994 72.0802 10.738 -37.7002 72.3015 10.5224 -37.8994 
72.518 10.2791 -38.0996 72.7252 10.0356 -38.2998 72.9177 9.79459 -38.5996 
73.1127 9.58077 -38.7998 73.2897 9.34125 -39.0996 73.4521 9.07816 -39.3994 
73.5087 8.77554 -39.7002 73.6004 8.53523 -40 73.7588 8.31364 -40.2998 
73.8805 8.11901 -40.5996 74.0224 7.88764 -40.7998 74.1753 7.70218 -41.0996 
74.3285 7.53662 -41.3994 74.4657 7.3918 -41.7002 74.6194 7.25079 -42 
74.8017 7.02585 -42.2998 74.9689 6.84212 -42.5996 75.1029 6.7106 -43 
75.302 6.61517 -43.2998 75.4516 6.5605 -43.7002 75.6557 6.42812 -44.0996 
75.8946 6.22385 -44.5 76.1266 5.99178 -44.7998 76.3442 5.73967 -45.0996 
76.5462 5.47563 -45.3994 76.7342 5.16723 -45.7002 76.9158 4.85338 -45.8994 
77.1122 4.56632 -46.0996 77.3204 4.2992 -46.2002 77.5549 4.04676 -46.2998 
77.7545 3.83476 -46.5 77.9437 3.6261 -46.5996 78.1166 3.37747 -46.7002 
78.2261 3.05542 -46.7998 78.3178 2.6956 -46.8994 78.3947 2.33819 -46.8994 
78.4873 1.98561 -46.8994 78.6176 1.62248 -46.8994 78.7071 1.24433 -47 
78.7777 0.86161 -47 78.8765 0.48744 -47.0996 78.9917 0.14371 -47 
79.0947 -0.20312 -47 79.1663 -0.55843 -46.8994 79.2076 -0.92555 -46.8994 
79.2427 -1.26795 -47 79.2877 -1.58638 -47 79.3133 -1.91453 -47 
79.3279 -2.27148 -47.0996 79.1944 -2.64459 -47.2002 78.906 -2.9179 -47 
78.6878 -3.17732 -46.7998 78.5281 -3.50328 -46.5996 78.3739 -3.85706 -46.5 
78.2958 -4.21355 -46.3994 78.0641 -4.43434 -46.0996 78.1165 -4.84918 -46.0996 
78.0287 -5.1819 -46.3994 77.7995 -5.47196 -46.5996 77.4939 -5.70515 -46.7002 
77.2385 -5.93625 -46.7002 22.784 13.0606 -7.7002 23.354 13.5042 -8.2002 
23.7792 14.1283 -8.7002 24.1574 14.8613 -9.2002 24.383 15.6261 -9.7002 
24.6631 16.3745 -10 24.935 17.0641 -10.3994 25.1544 17.7393 -10.7002 
25.4717 18.2598 -11.2002 25.8943 18.687 -11.7002 26.3188 19.0807 -12.2002 
26.6797 19.5673 -12.7002 26.9723 20.1235 -13.2002 27.2312 20.7174 -13.5996 
27.4269 21.2916 -14.0996 27.5976 21.8274 -14.5 27.7554 22.351 -15 
27.9462 22.86 -15.5 28.1631 23.3811 -16 28.3929 23.9278 -16.3994 
28.584 24.4686 -17 28.7721 24.989 -17.5 29.0296 25.4397 -18.0996 
29.1258 26.0037 -18.5996 29.2835 26.5361 -19.2002 29.4252 27.063 -19.7002 
29.5332 27.5826 -20.2998 29.6455 28.0946 -20.8994 29.7456 28.5671 -21.5 
29.8433 29.0416 -22.0996 30.005 29.4983 -22.7002 30.2936 29.9705 -23.2998 
30.5908 30.4505 -23.8994 30.9862 30.8509 -24.3994 31.3643 31.2052 -24.7998 
31.668 31.5621 -25.2998 31.9067 31.9119 -25.7998 32.1557 32.2156 -26.2002 
32.4086 32.5214 -26.5996 32.6599 32.8244 -27.0996 32.8995 33.1594 -27.5 
33.1454 33.443 -27.8994 33.4129 33.7236 -28.3994 33.712 33.9766 -28.7998 
34.0248 34.2205 -29.2998 34.3346 34.4468 -29.7002 34.609 34.6753 -30.2002 
34.8628 34.8998 -30.7002 35.0946 35.1261 -31.2002 35.3153 35.3618 -31.7002 
35.5355 35.6004 -32.2002 35.799 35.834 -32.7002 36.1271 36.0533 -33.2002 
36.4804 36.2473 -33.5996 36.6495 36.422 -34.0996 36.7871 36.502 -34.7002 
36.8875 36.5224 -35.2002 37.0704 36.4036 -35.5996 36.9608 36.0135 -35.5996 
37.0691 35.6821 -35.5 
LINES 7 752
11 0 1 2 3 4 5 6 7 8 9 10 
46 10 11 12 13 14 15 16 17 18 19 20 21 22 23 24 25 26 27 28 29 30 31 32 33 34 35 36 37 38 39 40 41 42 43 44 45 46 47 48 49 50 51 52 53 54 55 
168 55 56 57 58 59 60 61 62 63 64 65 66 67 68 69 70 71 72 73 74 75 76 77 78 79 80 81 82 83 84 85 86 87 88 89 90 91 92 93 94 95 96 97 98 99 100 101 102 103 104 105 106 107 108 109 110 111 112 113 114 115 116 117 118 119 120 121 122 123 124 125 126 127 128 129 130 131 132 133 134 135 136 137 138 139 140 141 142 143 144 145 146 147 148 149 150 151 152 153 154 155 156 157 158 159 160 161 162 163 164 165 166 167 168 169 170 171 172 173 174 175 176 177 178 179 180 181 182 183 184 185 186 187 188 189 190 191 192 193 194 195 196 197 198 199 200 201 202 203 204 205 206 207 208 209 210 211 212 213 214 215 216 217 218 219 220 221 222 
224 55 223 224 225 226 227 228 229 230 231 232 233 234 235 236 237 238 239 240 241 242 243 244 245 246 247 248 249 250 251 252 253 254 255 256 257 258 259 260 261 262 263 264 265 266 267 268 269 270 271 272 273 274 275 276 277 278 279 280 281 282 283 284 285 286 287 288 289 290 291 292 293 294 295 296 297 298 299 300 301 302 303 304 305 306 307 308 309 310 311 312 313 314 315 316 317 318 319 320 321 322 323 324 325 326 327 328 329 330 331 332 333 334 335 336 337 338 339 340 341 342 343 344 345 346 347 348 349 350 351 352 353 354 355 356 357 358 359 360 361 362 363 364 365 366 367 368 369 370 371 372 373 374 375 376 377 378 379 380 381 382 383 384 385 386 387 388 389 390 391 392 393 394 395 396 397 398 399 400 401 402 403 404 405 406 407 408 409 410 411 412 413 414 415 416 417 418 419 420 421 422 423 424 425 426 427 428 429 430 431 432 433 434 435 436 437 438 439 440 441 442 443 444 445 
25 10 446 447 448 449 450 451 452 453 454 455 456 457 458 459 460 461 462 463 464 465 466 467 468 469 
210 469 470 471 472 473 474 475 476 477 478 479 480 481 482 483 484 485 486 487 488 489 490 491 492 493 494 495 496 497 498 499 500 501 502 503 504 505 506 507 508 509 510 511 512 513 514 515 516 517 518 519 520 521 522 523 524 525 526 527 528 529 530 531 532 533 534 535 536 537 538 539 540 541 542 543 544 545 546 547 548 549 550 551 552 553 554 555 556 557 558 559 560 561 562 563 564 565 566 567 568 569 570 571 572 573 574 575 576 577 578 579 580 581 582 583 584 585 586 587 588 589 590 591 592 593 594 595 596 597 598 599 600 601 602 603 604 605 606 607 608 609 610 611 612 613 614 615 616 617 618 619 620 621 622 623 624 625 626 627 628 629 630 631 632 633 634 635 636 637 638 639 640 641 642 643 644 645 646 647 648 649 650 651 652 653 654 655 656 657 658 659 660 661 662 663 664 665 666 667 668 669 670 671 672 673 674 675 676 677 678 
61 469 679 680 681 682 683 684 685 686 687 688 689 690 691 692 693 694 695 696 697 698 699 700 701 702 703 704 705 706 707 708 709 710 711 712 713 714 715 716 717 718 719 720 721 722 723 724 725 726 727 728 729 730 731 732 733 734 735 736 737 738 

POINT_DATA 739
SCALARS radii double
LOOKUP_TABLE default
2.22769 2.22592 2.26205 2.41949 2.50072 2.4971 2.43692 2.36948 2.31677 
2.10615 1.91469 1.74062 1.58239 1.43853 1.30776 1.18887 1.1714 1.21077 
1.24189 1.32626 1.37396 1.40721 1.43161 1.46238 1.50431 1.59588 1.66885 
1.68342 1.66458 1.62791 1.62604 1.62849 1.59691 1.58723 1.53224 1.47875 
1.47904 1.49071 1.53091 1.60539 1.66114 1.72847 1.78085 1.78575 1.75069 
1.72761 1.74911 1.81702 1.81321 1.64837 1.49852 1.36229 1.33636 1.33722 
1.38257 1.41574 1.13968 1.16832 1.18526 1.19225 1.19691 1.23114 1.24681 
1.22785 1.15721 1.10874 1.06812 1.0449 1.02686 1.01582 1.00215 0.993977 
0.997035 0.996932 0.999693 0.983546 0.971759 0.948357 0.9443 0.9443 0.948656 
0.954855 0.960871 0.967666 0.973133 0.98212 0.991225 0.99547 1.00123 1.01714 
1.03779 1.05928 1.12627 1.14806 1.17815 1.22264 1.26396 1.28329 1.28368 
1.28368 1.27734 1.30111 1.33833 1.32995 1.33584 1.35593 1.46146 1.62385 
1.80428 2.00475 2.2275 2.475 2.2275 2.00475 1.80428 1.62385 1.46146 
1.31532 1.20588 1.08529 1.00502 0.98414 1.00845 1.03748 1.03748 1.03632 
1.02949 1.0576 1.16335 1.2266 1.2266 1.20278 1.13193 1.10628 1.10786 
1.11919 1.12682 1.13982 1.15274 1.16077 1.16077 1.15317 1.15284 1.16341 
1.16341 1.18896 1.17759 1.16609 1.16326 1.18233 1.20198 1.18184 1.16722 
1.12246 1.08845 1.09317 1.12924 1.15916 1.16586 1.13686 1.0912 1.06449 
1.06321 1.07276 1.07276 1.09277 1.11116 1.1511 1.16781 1.15309 1.11276 
1.08781 1.02397 0.996639 0.978324 0.969897 0.960229 0.938354 0.902335 0.904327 
0.903785 0.913025 0.912503 0.912503 0.930938 0.974311 0.988466 1.05576 1.10413 
1.11361 1.08115 1.03412 1.01466 1.01466 1.00296 1.00296 0.902662 0.838563 
0.828995 0.82775 0.830199 0.810602 0.777505 0.777071 0.771707 0.762852 0.761062 
0.778518 0.798761 0.824227 0.853932 0.8513 0.812719 0.812666 0.830538 0.911736 
0.943772 0.966053 0.992435 0.980359 1.0278 1.09755 1.2073 1.53202 1.39275 
1.26614 1.15103 1.06074 1.00315 0.998199 1.0125 1.02276 1.05452 1.08848 
1.17493 1.20764 1.21939 1.20878 1.28195 1.29558 1.30742 1.29646 1.28312 
1.26639 1.24368 1.22651 1.16964 1.124 1.05154 1.01815 1.00281 0.995004 
0.996195 1.00264 1.01416 1.02398 1.02989 1.03736 1.05103 1.06542 1.06655 
1.06655 1.0476 1.01095 0.991893 0.984091 0.992896 1.06541 1.18378 1.31532 
1.46146 1.62385 1.80428 2.00475 2.2275 2.475 2.2275 2.00475 1.80428 
1.62385 1.46146 1.31532 1.18378 1.06541 0.978542 0.961346 0.965579 0.966361 
0.966361 0.940579 0.925683 0.929546 0.929546 0.937196 0.937196 0.941838 0.926908 
0.925004 0.928766 0.928481 0.928674 0.928674 0.940504 0.940504 0.962034 0.978068 
0.999623 1.01901 1.02039 1.00757 0.990113 0.972008 0.953368 0.936354 0.918205 
0.901477 0.884253 0.864279 0.843319 0.835325 0.8435 0.855272 0.854384 0.840332 
0.828952 0.831832 0.838846 0.839872 0.853107 0.853107 0.853107 0.84192 0.807504 
0.787805 0.780415 0.771238 0.771238 0.771238 0.779711 0.784763 0.798993 0.785839 
0.779929 0.789934 0.794683 0.794683 0.786381 0.758685 0.730279 0.714142 0.711569 
0.678517 0.626492 0.61363 0.612058 0.62558 0.653654 0.64584 0.626546 0.637787 
0.685187 0.697178 0.743903 0.778574 0.743934 0.712325 0.695354 0.660153 0.627414 
0.613831 0.607796 0.624701 0.618894 0.621816 0.57566 0.55034 0.541869 0.558582 
0.564446 0.538612 0.5 0.5 0.5 0.5 0.55 0.598301 0.622935 
0.626443 0.593411 0.581605 0.540596 0.540205 0.536949 0.535073 0.534729 0.550147 
0.605161 0.665677 0.674901 0.659205 0.666797 0.694573 0.706973 0.706949 0.719996 
0.763149 0.774449 0.723217 0.695603 0.69152 0.69152 0.659632 0.606704 0.576342 
0.573582 0.54682 0.594146 0.580191 0.550985 0.606084 0.623573 0.64361 0.637043 
0.619509 0.557558 0.501803 0.5 0.5 0.5233 0.536069 0.5 0.5 
0.5 0.55 0.568713 0.60559 0.666149 0.654509 0.636637 0.631459 0.630553 
0.627972 0.690641 0.749031 0.773089 0.850398 2.02929 1.87626 1.79752 1.79332 
1.78335 1.79842 1.80751 1.80369 1.7993 1.7955 1.78406 1.76289 1.74234 
1.69788 1.68369 1.67606 1.66531 1.6932 1.60494 1.45903 1.3264 1.23583 
1.20315 1.18091 1.13657 1.03325 0.987738 0.992286 1.00736 1.04531 1.02837 
1.00588 0.924243 0.840221 0.869412 0.825826 0.807481 0.847932 0.863528 0.910954 
0.948209 0.958997 0.965614 0.97357 0.966013 0.932787 0.894205 0.870259 0.859025 
0.848811 0.838295 0.831433 0.836367 0.831774 0.842658 0.854095 0.857345 0.841478 
0.780467 0.764914 0.753005 0.765597 0.788917 0.79286 0.79855 0.808964 0.815116 
0.820424 0.862979 0.958866 1.06541 1.18378 1.31532 1.46146 1.62385 1.80428 
2.00475 2.2275 2.475 2.2275 2.00475 1.80428 1.62385 1.46146 1.31532 
1.18378 1.06541 0.958866 0.862979 0.836925 0.834556 0.833658 0.83251 0.828108 
0.816361 0.808584 0.795041 0.795716 0.848612 0.850561 0.863182 0.872552 0.882223 
0.881482 0.82925 0.801393 0.721379 0.672177 0.678451 0.664512 0.676735 0.70908 
0.745278 0.773547 0.80916 0.816732 0.825353 0.863309 0.900131 0.915163 0.92036 
0.935189 0.931606 0.929055 0.928526 0.93125 0.948527 0.943886 0.917713 0.889326 
0.87152 0.838667 0.828383 0.823811 0.839731 0.85211 0.867553 0.853993 0.832814 
0.828863 0.822285 0.819855 0.83017 0.893953 0.915376 0.917819 0.922628 0.927279 
0.93234 0.961826 0.986964 0.972523 0.957199 0.959837 0.982188 0.956767 0.885621 
0.865665 0.858413 0.885917 0.974509 0.935626 0.949764 0.902131 0.924704 0.970278 
0.965459 0.949898 0.924121 0.831709 0.770332 0.742894 0.770212 0.783694 0.798471 
0.798903 0.817299 0.839099 0.839406 0.79307 0.756984 0.756984 0.726529 0.721102 
0.694986 0.724722 0.791201 0.808968 0.851267 0.85745 0.870358 0.928369 0.954045 
0.943273 0.919803 0.908339 0.892713 0.846497 0.774479 0.737954 0.714526 0.643074 
0.617509 0.643979 0.708377 0.750562 0.731433 0.730477 0.773719 0.783122 0.786009 
0.779228 0.728732 0.737263 0.739599 0.739753 0.712418 0.643703 0.660544 0.726598 
0.799258 0.826897 0.818076 0.820972 0.820972 0.773022 0.76036 0.836396 0.920035 
0.828032 0.772887 0.695598 0.638929 1.68444 1.85289 1.94167 1.87248 1.73941 
1.61939 1.56653 1.52584 1.61282 1.56545 1.57907 1.5817 1.56467 1.50108 
1.46431 1.44691 1.44195 1.47512 1.52117 1.53398 1.53404 1.5411 1.57941 
1.57989 1.57215 1.57057 1.57501 1.57292 1.55351 1.53538 1.58726 1.59448 
1.51773 1.41026 1.33421 1.24424 1.1747 1.16565 1.15167 1.1715 1.1715 
1.19452 1.20231 1.20333 1.19841 1.18757 1.18819 1.18175 1.19853 1.19853 
1.20393 1.21452 1.20458 1.17744 1.11227 1.00104 0.900935 0.810841 0.729757 
0.802733 
