# vtk DataFile Version 3.0
vtk output
ASCII
DATASET POLYDATA
POINTS 601 float
0 0 0 0.1 0 0 0.2 0 0 
0.3 0 0 0.4 0 0 0.5 0 0 
0.6 0 0 0.7 0 0 0.8 0 0 
0.9 0 0 1 0 0 1.1 0 0 
1.2 0 0 1.3 0 0 1.4 0 0 
1.5 0 0 1.6 0 0 1.7 0 0 
1.8 0 0 1.9 0 0 2 0 0 
2.1 0 0 2.2 0 0 2.3 0 0 
2.4 0 0 2.5 0 0 2.6 0 0 
2.7 0 0 2.8 0 0 2.9 0 0 
3 0 0 3.1 0 0 3.2 0 0 
3.3 0 0 3.4 0 0 3.5 0 0 
3.6 0 0 3.7 0 0 3.8 0 0 
3.9 0 0 4 0 0 4.1 0 0 
4.2 0 0 4.3 0 0 4.4 0 0 
4.5 0 0 4.6 0 0 4.7 0 0 
4.8 0 0 4.9 0 0 5 0 0 
5.1 0 0 5.2 0 0 5.3 0 0 
5.4 0 0 5.5 0 0 5.6 0 0 
5.7 0 0 5.8 0 0 5.9 0 0 
6 0 0 6.1 0 0 6.2 0 0 
6.3 0 0 6.4 0 0 6.5 0 0 
6.6 0 0 6.7 0 0 6.8 0 0 
6.9 0 0 7 0 0 7.1 0 0 
7.2 0 0 7.3 0 0 7.4 0 0 
7.5 0 0 7.6 0 0 7.7 0 0 
7.8 0 0 7.9 0 0 8 0 0 
8.1 0 0 8.2 0 0 8.3 0 0 
8.4 0 0 8.5 0 0 8.6 0 0 
8.7 0 0 8.8 0 0 8.9 0 0 
9 0 0 9.1 0 0 9.2 0 0 
9.3 0 0 9.4 0 0 9.5 0 0 
9.6 0 0 9.7 0 0 9.8 0 0 
9.9 0 0 10 0 0 10.1 0 0 
10.2 0 0 10.3 0 0 10.4 0 0 
10.5 0 0 10.6 0 0 10.7 0 0 
10.8 0 0 10.9 0 0 11 0 0 
11.1 0 0 11.2 0 0 11.3 0 0 
11.4 0 0 11.5 0 0 11.6 0 0 
11.7 0 0 11.8 0 0 11.9 0 0 
12 0 0 12.1 0 0 12.2 0 0 
12.3 0 0 12.4 0 0 12.5 0 0 
12.6 0 0 12.7 0 0 12.8 0 0 
12.9 0 0 13 0 0 13.1 0 0 
13.2 0 0 13.3 0 0 13.4 0 0 
13.5 0 0 13.6 0 0 13.7 0 0 
13.8 0 0 13.9 0 0 14 0 0 
14.1 0 0 14.2 0 0 14.3 0 0 
14.4 0 0 14.5 0 0 14.6 0 0 
14.7 0 0 14.8 0 0 14.9 0 0 
15 0 0 15.1 0 0 15.2 0 0 
15.3 0 0 15.4 0 0 15.5 0 0 
15.6 0 0 15.7 0 0 15.8 0 0 
15.9 0 0 16 0 0 16.1 0 0 
16.2 0 0 16.3 0 0 16.4 0 0 
16.5 0 0 16.6 0 0 16.7 0 0 
16.8 0 0 16.9 0 0 17 0 0 
17.1 0 0 17.2 0 0 17.3 0 0 
17.4 0 0 17.5 0 0 17.6 0 0 
17.7 0 0 17.8 0 0 17.9 0 0 
18 0 0 18.1 0 0 18.2 0 0 
18.3 0 0 18.4 0 0 18.5 0 0 
18.6 0 0 18.7 0 0 18.8 0 0 
18.9 0 0 19 0 0 19.1 0 0 
19.2 0 0 19.3 0 0 19.4 0 0 
19.5 0 0 19.6 0 0 19.7 0 0 
19.8 0 0 19.9 0 0 20 0 0 
20.0707 -0.0707107 0 20.1414 -0.141421 0 20.2121 -0.212132 0 
20.2828 -0.282843 0 20.3536 -0.353553 0 20.4243 -0.424264 0 
20.495 -0.494975 0 20.5657 -0.565685 0 20.6364 -0.636396 0 
20.7071 -0.707107 0 20.7778 -0.777817 0 20.8485 -0.848528 0 
20.9192 -0.919239 0 20.99 -0.989949 0 21.0607 -1.06066 0 
21.1314 -1.13137 0 21.2021 -1.20208 0 21.2728 -1.27279 0 
21.3435 -1.3435 0 21.4142 -1.41421 0 21.4849 -1.48492 0 
21.5556 -1.55563 0 21.6263 -1.62635 0 21.6971 -1.69706 0 
21.7678 -1.76777 0 21.8385 -1.83848 0 21.9092 -1.90919 0 
21.9799 -1.9799 0 22.0506 -2.05061 0 22.1213 -2.12132 0 
22.192 -2.19203 0 22.2627 -2.26274 0 22.3335 -2.33345 0 
22.4042 -2.40416 0 22.4749 -2.47487 0 22.5456 -2.54558 0 
22.6163 -2.6163 0 22.687 -2.68701 0 22.7577 -2.75772 0 
22.8284 -2.82843 0 22.8991 -2.89914 0 22.9698 -2.96985 0 
23.0406 -3.04056 0 23.1113 -3.11127 0 23.182 -3.18198 0 
23.2527 -3.25269 0 23.3234 -3.3234 0 23.3941 -3.39411 0 
23.4648 -3.46482 0 23.5355 -3.53553 0 23.6062 -3.60624 0 
23.677 -3.67696 0 23.7477 -3.74767 0 23.8184 -3.81838 0 
23.8891 -3.88909 0 23.9598 -3.9598 0 24.0305 -4.03051 0 
24.1012 -4.10122 0 24.1719 -4.17193 0 24.2426 -4.24264 0 
24.3134 -4.31335 0 24.3841 -4.38406 0 24.4548 -4.45477 0 
24.5255 -4.52548 0 24.5962 -4.59619 0 24.6669 -4.6669 0 
24.7376 -4.73762 0 24.8083 -4.80833 0 24.879 -4.87904 0 
24.9497 -4.94975 0 25.0205 -5.02046 0 25.0912 -5.09117 0 
25.1619 -5.16188 0 25.2326 -5.23259 0 25.3033 -5.3033 0 
25.374 -5.37401 0 25.4447 -5.44472 0 25.5154 -5.51543 0 
25.5861 -5.58614 0 25.6569 -5.65685 0 25.7276 -5.72756 0 
25.7983 -5.79828 0 25.869 -5.86899 0 25.9397 -5.9397 0 
26.0104 -6.01041 0 26.0811 -6.08112 0 26.1518 -6.15183 0 
26.2225 -6.22254 0 26.2933 -6.29325 0 26.364 -6.36396 0 
26.4347 -6.43467 0 26.5054 -6.50538 0 26.5761 -6.57609 0 
26.6468 -6.6468 0 26.7175 -6.71751 0 26.7882 -6.78823 0 
26.8589 -6.85894 0 26.9296 -6.92965 0 27.0004 -7.00036 0 
27.0711 -7.07107 0 27.1418 -7.14178 0 27.2125 -7.21249 0 
27.2832 -7.2832 0 27.3539 -7.35391 0 27.4246 -7.42462 0 
27.4953 -7.49533 0 27.566 -7.56604 0 27.6368 -7.63675 0 
27.7075 -7.70746 0 27.7782 -7.77817 0 27.8489 -7.84889 0 
27.9196 -7.9196 0 27.9903 -7.99031 0 28.061 -8.06102 0 
28.1317 -8.13173 0 28.2024 -8.20244 0 28.2731 -8.27315 0 
28.3439 -8.34386 0 28.4146 -8.41457 0 28.4853 -8.48528 0 
28.556 -8.55599 0 28.6267 -8.6267 0 28.6974 -8.69741 0 
28.7681 -8.76812 0 28.8388 -8.83883 0 28.9095 -8.90955 0 
28.9803 -8.98026 0 29.051 -9.05097 0 29.1217 -9.12168 0 
29.1924 -9.19239 0 29.2631 -9.2631 0 29.3338 -9.33381 0 
29.4045 -9.40452 0 29.4752 -9.47523 0 29.5459 -9.54594 0 
29.6167 -9.61665 0 29.6874 -9.68736 0 29.7581 -9.75807 0 
29.8288 -9.82878 0 29.8995 -9.8995 0 29.9702 -9.97021 0 
30.0409 -10.0409 0 30.1116 -10.1116 0 30.1823 -10.1823 0 
30.253 -10.253 0 30.3238 -10.3238 0 30.3945 -10.3945 0 
30.4652 -10.4652 0 30.5359 -10.5359 0 30.6066 -10.6066 0 
30.6773 -10.6773 0 30.748 -10.748 0 30.8187 -10.8187 0 
30.8894 -10.8894 0 30.9602 -10.9602 0 31.0309 -11.0309 0 
31.1016 -11.1016 0 31.1723 -11.1723 0 31.243 -11.243 0 
31.3137 -11.3137 0 31.3844 -11.3844 0 31.4551 -11.4551 0 
31.5258 -11.5258 0 31.5966 -11.5966 0 31.6673 -11.6673 0 
31.738 -11.738 0 31.8087 -11.8087 0 31.8794 -11.8794 0 
31.9501 -11.9501 0 32.0208 -12.0208 0 32.0915 -12.0915 0 
32.1622 -12.1622 0 32.2329 -12.2329 0 32.3037 -12.3037 0 
32.3744 -12.3744 0 32.4451 -12.4451 0 32.5158 -12.5158 0 
32.5865 -12.5865 0 32.6572 -12.6572 0 32.7279 -12.7279 0 
32.7986 -12.7986 0 32.8693 -12.8693 0 32.9401 -12.9401 0 
33.0108 -13.0108 0 33.0815 -13.0815 0 33.1522 -13.1522 0 
33.2229 -13.2229 0 33.2936 -13.2936 0 33.3643 -13.3643 0 
33.435 -13.435 0 33.5057 -13.5057 0 33.5765 -13.5765 0 
33.6472 -13.6472 0 33.7179 -13.7179 0 33.7886 -13.7886 0 
33.8593 -13.8593 0 33.93 -13.93 0 34.0007 -14.0007 0 
34.0714 -14.0714 0 34.1421 -14.1421 0 20.0707 0.0707107 0 
20.1414 0.141421 0 20.2121 0.212132 0 20.2828 0.282843 0 
20.3536 0.353553 0 20.4243 0.424264 0 20.495 0.494975 0 
20.5657 0.565685 0 20.6364 0.636396 0 20.7071 0.707107 0 
20.7778 0.777817 0 20.8485 0.848528 0 20.9192 0.919239 0 
20.99 0.989949 0 21.0607 1.06066 0 21.1314 1.13137 0 
21.2021 1.20208 0 21.2728 1.27279 0 21.3435 1.3435 0 
21.4142 1.41421 0 21.4849 1.48492 0 21.5556 1.55563 0 
21.6263 1.62635 0 21.6971 1.69706 0 21.7678 1.76777 0 
21.8385 1.83848 0 21.9092 1.90919 0 21.9799 1.9799 0 
22.0506 2.05061 0 22.1213 2.12132 0 22.192 2.19203 0 
22.2627 2.26274 0 22.3335 2.33345 0 22.4042 2.40416 0 
22.4749 2.47487 0 22.5456 2.54558 0 22.6163 2.6163 0 
22.687 2.68701 0 22.7577 2.75772 0 22.8284 2.82843 0 
22.8991 2.89914 0 22.9698 2.96985 0 23.0406 3.04056 0 
23.1113 3.11127 0 23.182 3.18198 0 23.2527 3.25269 0 
23.3234 3.3234 0 23.3941 3.39411 0 23.4648 3.46482 0 
23.5355 3.53553 0 23.6062 3.60624 0 23.677 3.67696 0 
23.7477 3.74767 0 23.8184 3.81838 0 23.8891 3.88909 0 
23.9598 3.9598 0 24.0305 4.03051 0 24.1012 4.10122 0 
24.1719 4.17193 0 24.2426 4.24264 0 24.3134 4.31335 0 
24.3841 4.38406 0 24.4548 4.45477 0 24.5255 4.52548 0 
24.5962 4.59619 0 24.6669 4.6669 0 24.7376 4.73762 0 
24.8083 4.80833 0 24.879 4.87904 0 24.9497 4.94975 0 
25.0205 5.02046 0 25.0912 5.09117 0 25.1619 5.16188 0 
25.2326 5.23259 0 25.3033 5.3033 0 25.374 5.37401 0 
25.4447 5.44472 0 25.5154 5.51543 0 25.5861 5.58614 0 
25.6569 5.65685 0 25.7276 5.72756 0 25.7983 5.79828 0 
25.869 5.86899 0 25.9397 5.9397 0 26.0104 6.01041 0 
26.0811 6.08112 0 26.1518 6.15183 0 26.2225 6.22254 0 
26.2933 6.29325 0 26.364 6.36396 0 26.4347 6.43467 0 
26.5054 6.50538 0 26.5761 6.57609 0 26.6468 6.6468 0 
26.7175 6.71751 0 26.7882 6.78823 0 26.8589 6.85894 0 
26.9296 6.92965 0 27.0004 7.00036 0 27.0711 7.07107 0 
27.1418 7.14178 0 27.2125 7.21249 0 27.2832 7.2832 0 
27.3539 7.35391 0 27.4246 7.42462 0 27.4953 7.49533 0 
27.566 7.56604 0 27.6368 7.63675 0 27.7075 7.70746 0 
27.7782 7.77817 0 27.8489 7.84889 0 27.9196 7.9196 0 
27.9903 7.99031 0 28.061 8.06102 0 28.1317 8.13173 0 
28.2024 8.20244 0 28.2731 8.27315 0 28.3439 8.34386 0 
28.4146 8.41457 0 28.4853 8.48528 0 28.556 8.55599 0 
28.6267 8.6267 0 28.6974 8.69741 0 28.7681 8.76812 0 
28.8388 8.83883 0 28.9095 8.90955 0 28.9803 8.98026 0 
29.051 9.05097 0 29.1217 9.12168 0 29.1924 9.19239 0 
29.2631 9.2631 0 29.3338 9.33381 0 29.4045 9.40452 0 
29.4752 9.47523 0 29.5459 9.54594 0 29.6167 9.61665 0 
29.6874 9.68736 0 29.7581 9.75807 0 29.8288 9.82878 0 
29.8995 9.8995 0 29.9702 9.97021 0 30.0409 10.0409 0 
30.1116 10.1116 0 30.1823 10.1823 0 30.253 10.253 0 
30.3238 10.3238 0 30.3945 10.3945 0 30.4652 10.4652 0 
30.5359 10.5359 0 30.6066 10.6066 0 30.6773 10.6773 0 
30.748 10.748 0 30.8187 10.8187 0 30.8894 10.8894 0 
30.9602 10.9602 0 31.0309 11.0309 0 31.1016 11.1016 0 
31.1723 11.1723 0 31.243 11.243 0 31.3137 11.3137 0 
31.3844 11.3844 0 31.4551 11.4551 0 31.5258 11.5258 0 
31.5966 11.5966 0 31.6673 11.6673 0 31.738 11.738 0 
31.8087 11.8087 0 31.8794 11.8794 0 31.9501 11.9501 0 
32.0208 12.0208 0 32.0915 12.0915 0 32.1622 12.1622 0 
32.2329 12.2329 0 32.3037 12.3037 0 32.3744 12.3744 0 
32.4451 12.4451 0 32.5158 12.5158 0 32.5865 12.5865 0 
32.6572 12.6572 0 32.7279 12.7279 0 32.7986 12.7986 0 
32.8693 12.8693 0 32.9401 12.9401 0 33.0108 13.0108 0 
33.0815 13.0815 0 33.1522 13.1522 0 33.2229 13.2229 0 
33.2936 13.2936 0 33.3643 13.3643 0 33.435 13.435 0 
33.5057 13.5057 0 33.5765 13.5765 0 33.6472 13.6472 0 
33.7179 13.7179 0 33.7886 13.7886 0 33.8593 13.8593 0 
33.93 13.93 0 34.0007 14.0007 0 34.0714 14.0714 0 
34.1421 14.1421 0 
LINES 3 606
201 0 1 2 3 4 5 6 7 8 9 10 11 12 13 14 15 16 17 18 19 20 21 22 23 24 25 26 27 28 29 30 31 32 33 34 35 36 37 38 39 40 41 42 43 44 45 46 47 48 49 50 51 52 53 54 55 56 57 58 59 60 61 62 63 64 65 66 67 68 69 70 71 72 73 74 75 76 77 78 79 80 81 82 83 84 85 86 87 88 89 90 91 92 93 94 95 96 97 98 99 100 101 102 103 104 105 106 107 108 109 110 111 112 113 114 115 116 117 118 119 120 121 122 123 124 125 126 127 128 129 130 131 132 133 134 135 136 137 138 139 140 141 142 143 144 145 146 147 148 149 150 151 152 153 154 155 156 157 158 159 160 161 162 163 164 165 166 167 168 169 170 171 172 173 174 175 176 177 178 179 180 181 182 183 184 185 186 187 188 189 190 191 192 193 194 195 196 197 198 199 200 
201 200 201 202 203 204 205 206 207 208 209 210 211 212 213 214 215 216 217 218 219 220 221 222 223 224 225 226 227 228 229 230 231 232 233 234 235 236 237 238 239 240 241 242 243 244 245 246 247 248 249 250 251 252 253 254 255 256 257 258 259 260 261 262 263 264 265 266 267 268 269 270 271 272 273 274 275 276 277 278 279 280 281 282 283 284 285 286 287 288 289 290 291 292 293 294 295 296 297 298 299 300 301 302 303 304 305 306 307 308 309 310 311 312 313 314 315 316 317 318 319 320 321 322 323 324 325 326 327 328 329 330 331 332 333 334 335 336 337 338 339 340 341 342 343 344 345 346 347 348 349 350 351 352 353 354 355 356 357 358 359 360 361 362 363 364 365 366 367 368 369 370 371 372 373 374 375 376 377 378 379 380 381 382 383 384 385 386 387 388 389 390 391 392 393 394 395 396 397 398 399 400 
201 200 401 402 403 404 405 406 407 408 409 410 411 412 413 414 415 416 417 418 419 420 421 422 423 424 425 426 427 428 429 430 431 432 433 434 435 436 437 438 439 440 441 442 443 444 445 446 447 448 449 450 451 452 453 454 455 456 457 458 459 460 461 462 463 464 465 466 467 468 469 470 471 472 473 474 475 476 477 478 479 480 481 482 483 484 485 486 487 488 489 490 491 492 493 494 495 496 497 498 499 500 501 502 503 504 505 506 507 508 509 510 511 512 513 514 515 516 517 518 519 520 521 522 523 524 525 526 527 528 529 530 531 532 533 534 535 536 537 538 539 540 541 542 543 544 545 546 547 548 549 550 551 552 553 554 555 556 557 558 559 560 561 562 563 564 565 566 567 568 569 570 571 572 573 574 575 576 577 578 579 580 581 582 583 584 585 586 587 588 589 590 591 592 593 594 595 596 597 598 599 600 

POINT_DATA 601
SCALARS scalars double
LOOKUP_TABLE default
2 1.9975 1.995 1.9925 1.99 1.9875 1.985 1.9825 1.98 
1.9775 1.975 1.9725 1.97 1.9675 1.965 1.9625 1.96 1.9575 
1.955 1.9525 1.95 1.9475 1.945 1.9425 1.94 1.9375 1.935 
1.9325 1.93 1.9275 1.925 1.9225 1.92 1.9175 1.915 1.9125 
1.91 1.9075 1.905 1.9025 1.9 1.8975 1.895 1.8925 1.89 
1.8875 1.885 1.8825 1.88 1.8775 1.875 1.8725 1.87 1.8675 
1.865 1.8625 1.86 1.8575 1.855 1.8525 1.85 1.8475 1.845 
1.8425 1.84 1.8375 1.835 1.8325 1.83 1.8275 1.825 1.8225 
1.82 1.8175 1.815 1.8125 1.81 1.8075 1.805 1.8025 1.8 
1.7975 1.795 1.7925 1.79 1.7875 1.785 1.7825 1.78 1.7775 
1.775 1.7725 1.77 1.7675 1.765 1.7625 1.76 1.7575 1.755 
1.7525 1.75 1.7475 1.745 1.7425 1.74 1.7375 1.735 1.7325 
1.73 1.7275 1.725 1.7225 1.72 1.7175 1.715 1.7125 1.71 
1.7075 1.705 1.7025 1.7 1.6975 1.695 1.6925 1.69 1.6875 
1.685 1.6825 1.68 1.6775 1.675 1.6725 1.67 1.6675 1.665 
1.6625 1.66 1.6575 1.655 1.6525 1.65 1.6475 1.645 1.6425 
1.64 1.6375 1.635 1.6325 1.63 1.6275 1.625 1.6225 1.62 
1.6175 1.615 1.6125 1.61 1.6075 1.605 1.6025 1.6 1.5975 
1.595 1.5925 1.59 1.5875 1.585 1.5825 1.58 1.5775 1.575 
1.5725 1.57 1.5675 1.565 1.5625 1.56 1.5575 1.555 1.5525 
1.55 1.5475 1.545 1.5425 1.54 1.5375 1.535 1.5325 1.53 
1.5275 1.525 1.5225 1.52 1.5175 1.515 1.5125 1.51 1.5075 
1.505 1.5025 1.5 1.4975 1.495 1.4925 1.49 1.4875 1.485 
1.4825 1.48 1.4775 1.475 1.4725 1.47 1.4675 1.465 1.4625 
1.46 1.4575 1.455 1.4525 1.45 1.4475 1.445 1.4425 1.44 
1.4375 1.435 1.4325 1.43 1.4275 1.425 1.4225 1.42 1.4175 
1.415 1.4125 1.41 1.4075 1.405 1.4025 1.4 1.3975 1.395 
1.3925 1.39 1.3875 1.385 1.3825 1.38 1.3775 1.375 1.3725 
1.37 1.3675 1.365 1.3625 1.36 1.3575 1.355 1.3525 1.35 
1.3475 1.345 1.3425 1.34 1.3375 1.335 1.3325 1.33 1.3275 
1.325 1.3225 1.32 1.3175 1.315 1.3125 1.31 1.3075 1.305 
1.3025 1.3 1.2975 1.295 1.2925 1.29 1.2875 1.285 1.2825 
1.28 1.2775 1.275 1.2725 1.27 1.2675 1.265 1.2625 1.26 
1.2575 1.255 1.2525 1.25 1.2475 1.245 1.2425 1.24 1.2375 
1.235 1.2325 1.23 1.2275 1.225 1.2225 1.22 1.2175 1.215 
1.2125 1.21 1.2075 1.205 1.2025 1.2 1.1975 1.195 1.1925 
1.19 1.1875 1.185 1.1825 1.18 1.1775 1.175 1.1725 1.17 
1.1675 1.165 1.1625 1.16 1.1575 1.155 1.1525 1.15 1.1475 
1.145 1.1425 1.14 1.1375 1.135 1.1325 1.13 1.1275 1.125 
1.1225 1.12 1.1175 1.115 1.1125 1.11 1.1075 1.105 1.1025 
1.1 1.0975 1.095 1.0925 1.09 1.0875 1.085 1.0825 1.08 
1.0775 1.075 1.0725 1.07 1.0675 1.065 1.0625 1.06 1.0575 
1.055 1.0525 1.05 1.0475 1.045 1.0425 1.04 1.0375 1.035 
1.0325 1.03 1.0275 1.025 1.0225 1.02 1.0175 1.015 1.0125 
1.01 1.0075 1.005 1.0025 1 1.4975 1.495 1.4925 1.49 
1.4875 1.485 1.4825 1.48 1.4775 1.475 1.4725 1.47 1.4675 
1.465 1.4625 1.46 1.4575 1.455 1.4525 1.45 1.4475 1.445 
1.4425 1.44 1.4375 1.435 1.4325 1.43 1.4275 1.425 1.4225 
1.42 1.4175 1.415 1.4125 1.41 1.4075 1.405 1.4025 1.4 
1.3975 1.395 1.3925 1.39 1.3875 1.385 1.3825 1.38 1.3775 
1.375 1.3725 1.37 1.3675 1.365 1.3625 1.36 1.3575 1.355 
1.3525 1.35 1.3475 1.345 1.3425 1.34 1.3375 1.335 1.3325 
1.33 1.3275 1.325 1.3225 1.32 1.3175 1.315 1.3125 1.31 
1.3075 1.305 1.3025 1.3 1.2975 1.295 1.2925 1.29 1.2875 
1.285 1.2825 1.28 1.2775 1.275 1.2725 1.27 1.2675 1.265 
1.2625 1.26 1.2575 1.255 1.2525 1.25 1.2475 1.245 1.2425 
1.24 1.2375 1.235 1.2325 1.23 1.2275 1.225 1.2225 1.22 
1.2175 1.215 1.2125 1.21 1.2075 1.205 1.2025 1.2 1.1975 
1.195 1.1925 1.19 1.1875 1.185 1.1825 1.18 1.1775 1.175 
1.1725 1.17 1.1675 1.165 1.1625 1.16 1.1575 1.155 1.1525 
1.15 1.1475 1.145 1.1425 1.14 1.1375 1.135 1.1325 1.13 
1.1275 1.125 1.1225 1.12 1.1175 1.115 1.1125 1.11 1.1075 
1.105 1.1025 1.1 1.0975 1.095 1.0925 1.09 1.0875 1.085 
1.0825 1.08 1.0775 1.075 1.0725 1.07 1.0675 1.065 1.0625 
1.06 1.0575 1.055 1.0525 1.05 1.0475 1.045 1.0425 1.04 
1.0375 1.035 1.0325 1.03 1.0275 1.025 1.0225 1.02 1.0175 
1.015 1.0125 1.01 1.0075 1.005 1.0025 1 
