# vtk DataFile Version 3.0
vtk output
ASCII
DATASET POLYDATA
POINTS 1101 float
0 0 0 -0.693709 263.156 0 -2.76955 526.306 0 
-6.23355 789.44 0 -11.0796 1052.55 0 -17.3122 1315.64 0 
-24.9277 1578.68 0 -33.9307 1841.69 0 -44.3155 2104.64 0 
-56.0846 2367.53 0 -69.2363 2630.36 0 -83.7712 2893.12 0 
-99.6889 3155.79 0 -116.99 3418.38 0 -135.672 3680.87 0 
-155.737 3943.27 0 -177.18 4205.55 0 -200.003 4467.71 0 
-224.209 4729.76 0 -249.79 4991.67 0 -276.752 5253.44 0 
-305.092 5515.07 0 -334.804 5776.54 0 -365.897 6037.86 0 
-398.361 6299 0 -432.2 6559.98 0 -467.415 6820.77 0 
-503.999 7081.37 0 -541.954 7341.77 0 -581.278 7601.98 0 
-621.974 7861.97 0 -664.037 8121.74 0 -707.464 8381.29 0 
-752.26 8640.61 0 -798.419 8899.69 0 -845.938 9158.52 0 
-894.824 9417.09 0 -945.068 9675.41 0 -996.668 9933.46 0 
-1049.63 10191.2 0 -1103.94 10448.7 0 -1159.62 10705.9 0 
-1216.65 10962.8 0 -1275 11219.4 0 -1334.74 11475.7 0 
-1395.8 11731.7 0 -1458.24 11987.3 0 -1521.99 12242.7 0 
-1587.09 12497.6 0 -1653.54 12752.3 0 -1721.33 13006.5 0 
-1790.44 13260.5 0 -1860.93 13514 0 -1932.72 13767.2 0 
-2005.83 14020 0 -2080.29 14272.4 0 -2156.08 14524.4 0 
-2233.18 14776 0 -2311.61 15027.2 0 -2391.36 15278 0 
-2472.41 15528.3 0 -2554.82 15778.3 0 -2638.51 16027.8 0 
-2723.52 16276.8 0 -2809.84 16525.4 0 -2897.47 16773.5 0 
-2986.41 17021.2 0 -3076.64 17268.4 0 -3168.17 17515.1 0 
-3261.02 17761.4 0 -3355.13 18007.1 0 -3450.55 18252.4 0 
-3547.28 18497.1 0 -3645.26 18741.4 0 -3744.55 18985.1 0 
-3845.09 19228.3 0 -3946.95 19470.9 0 -4035.73 19679.2 130.692 
-4125.78 19886.9 261.401 -4217.1 20094 392.127 -4309.64 20300.7 522.834 
-4403.44 20506.7 653.536 -4498.47 20712.2 784.216 -4594.76 20917.1 914.92 
-4692.27 21121.5 1045.61 -4791.02 21325.2 1176.27 -4891.01 21528.4 1306.96 
-4992.21 21730.9 1437.59 -5094.65 21932.9 1568.25 -5198.28 22134.2 1698.89 
-5303.16 22334.9 1829.52 -5409.25 22534.9 1960.15 -5516.53 22734.4 2090.74 
-5625.05 22933.1 2221.34 -5734.73 23131.3 2351.9 -5845.64 23328.8 2482.47 
-5957.73 23525.6 2612.99 -6071.05 23721.7 2743.55 -6185.51 23917.2 2874.04 
-6301.19 24111.9 3004.54 -6418.03 24306 3135 -6536.02 24499.4 3265.42 
-6655.22 24692.1 3395.84 -6775.58 24884 3526.24 -6897.12 25075.3 3656.62 
-7019.78 25265.8 3786.95 -7143.64 25455.6 3917.28 -7268.62 25644.7 4047.57 
-7394.78 25833 4177.84 -7522.07 26020.5 4308.08 -7650.5 26207.3 4438.29 
-7780.08 26393.3 4568.48 -7910.79 26578.6 4698.63 -8042.6 26763.1 4828.73 
-8175.55 26946.8 4958.81 -8309.65 27129.6 5088.88 -8444.82 27311.7 5218.87 
-8581.14 27493 5348.87 -8718.53 27673.5 5478.8 -8857.06 27853.2 5608.72 
-8996.64 28032 5738.56 -9137.36 28210 5868.41 -9279.14 28387.2 5998.18 
-9422.01 28563.6 6127.92 -9565.98 28739 6257.63 -9711.01 28913.7 6387.29 
-9857.11 29087.4 6516.92 -10004.3 29260.3 6646.5 -10152.5 29432.3 6775.99 
-10301.8 29603.5 6905.49 -10452.1 29773.7 7034.93 -10603.5 29943.1 7164.31 
-10755.9 30111.6 7293.65 -10909.4 30279.1 7422.93 -11063.9 30445.8 7552.16 
-11219.4 30611.4 7681.37 -11375.9 30776.3 7810.48 -11533.5 30940.1 7939.57 
-11692.1 31103.1 8068.59 -11851.7 31265.1 8197.56 -12012.3 31426.1 8326.46 
-12173.8 31586.2 8455.36 -12336.4 31745.3 8584.15 -12500 31903.5 8712.88 
-12664.5 32060.7 8841.54 -12830 32216.9 8970.18 -12996.5 32372.1 9098.74 
-13164 32526.4 9227.21 -13332.3 32679.7 9355.67 -13501.8 32831.8 9484.03 
-13672.1 32983.1 9612.32 -13843.3 33133.3 9740.58 -14015.5 33282.5 9868.77 
-14099.3 33298 10118.4 -14184 33312.5 10367.8 -14269.6 33326 10616.9 
-14356.3 33338.5 10865.8 -14443.8 33350.1 11114.3 -14532.3 33360.6 11362.6 
-14621.7 33370.2 11610.6 -14712 33378.8 11858.3 -14803.3 33386.4 12105.7 
-14895.6 33392.9 12352.7 -14988.7 33398.5 12599.5 -15082.8 33403.1 12845.8 
-15177.7 33406.7 13091.9 -15273.5 33409.3 13337.7 -15370.3 33410.8 13583.1 
-15468 33411.4 13828.1 -15566.5 33410.9 14072.8 -15666 33409.5 14317.1 
-15766.3 33407 14561 -15867.5 33403.6 14804.6 -15969.6 33399.1 15047.8 
-16072.6 33393.6 15290.6 -16176.5 33387.1 15533 -16281.2 33379.6 15775 
-16386.8 33371 16016.5 -16493.3 33361.5 16257.7 -16600.6 33350.9 16498.4 
-16708.7 33339.2 16738.7 -16817.7 33326.7 16978.6 -16927.6 33313 17218 
-17038.3 33298.3 17457 -17149.9 33282.6 17695.6 -17262.2 33265.9 17933.7 
-17375.4 33248.1 18171.2 -17489.3 33229.3 18408.4 -17604.2 33209.5 18645.1 
-17719.8 33188.7 18881.2 -17836.2 33166.8 19116.9 -17953.4 33143.9 19352.1 
-18071.5 33119.9 19586.8 -18190.3 33094.9 19821 -18309.9 33068.8 20054.7 
-18430.3 33041.8 20287.8 -18551.5 33013.7 20520.4 -18673.4 32984.6 20752.5 
-18796.1 32954.3 20984 -18919.6 32923.1 21215 -19043.9 32890.9 21445.5 
-19168.9 32857.5 21675.4 -19294.6 32823.2 21904.7 -19421.1 32787.8 22133.5 
-19548.3 32751.4 22361.6 -19676.2 32713.9 22589.2 -19805 32675.3 22816.2 
-19934.4 32635.7 23042.7 -20064.5 32595.1 23268.5 -20195.4 32553.4 23493.7 
-20326.9 32510.7 23718.3 -20459.1 32466.9 23942.3 -20592.1 32422.1 24165.7 
-20725.8 32376.2 24388.4 -20860.1 32329.3 24610.6 -20995.1 32281.3 24832.1 
-21130.8 32232.3 25052.9 -21267.2 32182.3 25273.1 -21404.2 32131.1 25492.6 
-21541.9 32078.9 25711.4 -21680.3 32025.7 25929.6 -21819.2 31971.5 26147.2 
-21958.9 31916.1 26364 -22014.3 31785.2 26580 -22070.5 31653.5 26795.3 
-22127.4 31521.1 27010 -22185.3 31388 27223.9 -22244.1 31254 27437.2 
-22303.8 31119.4 27649.7 -22364.3 30983.9 27861.5 -22425.7 30847.8 28072.6 
-22487.9 30711 28283 -22551 30573.3 28492.5 -22615 30435 28701.4 
-22679.8 30295.9 28909.6 -22745.5 30156.2 29117 -22812.1 30015.7 29323.6 
-22879.5 29874.6 29529.5 -22947.8 29732.7 29734.6 -23016.9 29590.1 29938.9 
-23086.9 29446.8 30142.5 -23157.7 29302.9 30345.2 -23229.4 29158.2 30547.2 
-23302 29012.9 30748.4 -23375.4 28867 30948.8 -23449.7 28720.3 31148.4 
-23524.8 28573 31347.2 -23600.9 28425.1 31545.2 -23677.7 28276.5 31742.3 
-23755.4 28127.3 31938.7 -23833.9 27977.4 32134.2 -23913.4 27826.9 32328.9 
-23993.7 27675.8 32522.7 -24074.8 27524 32715.7 -24156.8 27371.6 32907.8 
-24239.6 27218.6 33099.1 -24323.3 27065 33289.5 -24407.9 26910.8 33479.1 
-24493.2 26756 33667.8 -24579.5 26600.6 33855.6 -24666.5 26444.6 34042.6 
-24754.5 26288.1 34228.6 -24843.3 26131 34413.8 -24932.9 25973.3 34598.1 
-25023.4 25815.1 34781.5 -25114.7 25656.2 34963.9 -25206.9 25496.9 35145.5 
-25299.9 25337 35326.2 -25393.7 25176.6 35506 -25488.5 25015.6 35684.8 
-25584 24854.1 35862.7 -25680.4 24692.1 36039.7 -25777.6 24529.5 36215.7 
-25875.7 24366.5 36390.8 -25974.6 24203 36564.9 -26074.4 24038.9 36738.1 
-26174.9 23874.4 36910.4 -26276.3 23709.4 37081.7 -26378.6 23543.9 37252 
-26481.7 23377.9 37421.4 -26585.6 23211.5 37589.8 -26690.3 23044.6 37757.2 
-26796 22877.3 37923.7 -26902.4 22709.5 38089.1 -27009.6 22541.2 38253.6 
-27117.8 22372.6 38417.1 -27226.7 22203.4 38579.5 -27336.4 22033.9 38741.1 
-27447 21864 38901.5 -27558.4 21693.6 39060.9 -27670.7 21522.9 39219.4 
-27783.7 21351.8 39376.9 -27897.6 21180.2 39533.3 -28012.3 21008.3 39688.7 
-28127.8 20836 39843.1 -28244.2 20663.4 39996.4 -28361.4 20490.4 40148.7 
-28479.4 20317 40299.9 -28598.2 20143.3 40450.1 -28717.9 19969.2 40599.3 
-28838.3 19794.9 40747.4 -28959.7 19620.2 40894.4 -29081.7 19445.1 41040.4 
-29204.7 19269.8 41185.3 -29328.4 19094.1 41329.2 -22173.2 32012.4 26474.1 
-22388.2 32107.2 26584.1 -22603.9 32200.8 26694 -22820.3 32293 26803.5 
-23037.3 32383.8 26912.9 -23255 32473.2 27022.2 -23473.4 32561.2 27131.2 
-23692.4 32647.8 27240.2 -23912 32733.2 27348.9 -24132.3 32817 27457.4 
-24353.2 32899.4 27565.7 -24574.7 32980.5 27673.9 -24796.8 33060.1 27781.8 
-25019.5 33138.3 27889.6 -25242.8 33215.1 27997.2 -25466.7 33290.4 28104.6 
-25691.2 33364.3 28211.7 -25916.2 33436.7 28318.8 -26141.7 33507.7 28425.7 
-26367.8 33577.2 28532.3 -26594.5 33645.3 28638.7 -26821.6 33711.9 28744.9 
-27049.3 33777 28851 -27277.5 33840.6 28956.9 -27506.2 33902.7 29062.6 
-27735.4 33963.4 29168 -27965 34022.5 29273.3 -28195.2 34080.2 29378.4 
-28425.8 34136.4 29483.3 -28656.8 34191 29588 -28888.3 34244.1 29692.4 
-29120.2 34295.7 29796.8 -29352.6 34345.7 29900.8 -29585.4 34394.2 30004.7 
-29818.6 34441.2 30108.4 -30052.1 34486.6 30211.8 -30286.1 34530.5 30315.1 
-30520.4 34572.9 30418.2 -30755.1 34613.6 30521.1 -30990.2 34652.8 30623.7 
-31225.6 34690.4 30726.2 -31461.3 34726.4 30828.4 -31697.4 34760.9 30930.5 
-31933.8 34793.8 31032.3 -32170.5 34825.1 31133.9 -32407.5 34854.8 31235.3 
-32644.7 34882.9 31336.5 -32882.3 34909.4 31437.5 -33120.1 34934.3 31538.4 
-33358.2 34957.6 31638.8 -33596.4 34979.2 31739.3 -33835 34999.3 31839.3 
-34073.7 35017.7 31939.3 -34312.7 35034.4 32039 -34551.9 35049.6 32138.5 
-34791.2 35063 32237.8 -35030.7 35075 32336.9 -35270.5 35085.1 32435.6 
-35510.3 35093.7 32534.3 -35750.3 35100.6 32632.8 -35990.4 35105.9 32730.9 
-36230.7 35109.4 32828.9 -36471 35111.4 32926.6 -36711.5 35111.5 33024.1 
-36952 35110.2 33121.4 -37192.6 35107 33218.5 -37433.3 35102.2 33315.3 
-37674 35095.7 33412 -37914.8 35087.5 33508.4 -38155.6 35077.7 33604.6 
-38396.4 35066.1 33700.5 -38637.2 35052.8 33796.3 -38878 35037.8 33891.8 
-39118.7 35021.1 33987.1 -39359.5 35002.8 34082.1 -39600.2 34982.6 34176.9 
-39840.8 34960.8 34271.5 -40081.4 34937.2 34365.8 -40321.9 34912 34459.9 
-40562.3 34884.9 34553.8 -40802.5 34856.2 34647.5 -41042.7 34825.8 34740.9 
-41282.7 34793.6 34834.1 -41522.6 34759.7 34927 -41762.2 34723.9 35019.8 
-42001.8 34686.6 35112.3 -42241.1 34647.4 35204.5 -42480.3 34606.5 35296.5 
-42719.2 34563.9 35388.3 -42957.9 34519.4 35479.8 -14177.8 33476.5 9802.42 
-14341 33669.7 9736.05 -14505.4 33861.9 9669.66 -14670.8 34053.2 9603.26 
-14837.2 34243.6 9536.82 -15004.7 34433.1 9470.39 -15173.2 34621.7 9403.93 
-15342.8 34809.3 9337.47 -15513.4 34996 9270.96 -15685 35181.7 9204.44 
-15857.6 35366.5 9137.93 -16031.2 35550.4 9071.37 -16205.8 35733.3 9004.81 
-16381.5 35915.2 8938.24 -16558 36096.2 8871.63 -16735.7 36276.1 8805.03 
-16914.3 36455.1 8738.4 -17093.9 36633.1 8671.76 -17274.3 36810.2 8605.11 
-17455.9 36986.2 8538.43 -17638.3 37161.2 8471.74 -17821.8 37335.2 8405.02 
[...]
POINT_DATA 1101
SCALARS radiiScalars double
LOOKUP_TABLE default
2500 2491.9 2483.76 2475.68 2467.63 2459.61 2451.61 2443.63 2435.68 
2427.76 2419.86 2412 2404.14 2396.33 2388.54 2380.76 2373.02 2365.3 
2357.6 2349.94 2342.3 2334.68 2327.08 2319.51 2311.97 2304.45 2296.95 
2289.48 2282.03 2274.61 2267.22 2259.84 2252.49 2245.16 2237.86 2230.58 
2223.32 2216.09 2208.88 2201.7 2194.54 2187.4 2180.29 2173.2 2166.12 
2159.08 2152.06 2145.06 2138.08 2131.13 2124.2 2117.29 2110.39 2103.53 
2096.69 2089.87 2083.07 2076.3 2069.54 2062.81 2056.11 2049.41 2042.75 
2036.1 2029.48 2022.88 2016.3 2009.74 2003.21 1996.69 1990.19 1983.72 
1977.27 1970.83 1964.43 1958.02 1951.67 1941.8 1931.92 1922.12 1912.37 
1902.67 1893.01 1883.41 1873.85 1864.34 1854.88 1845.47 1836.1 1826.78 
1817.51 1808.28 1799.1 1789.97 1780.88 1771.83 1762.83 1753.87 1744.96 
1736.1 1727.27 1718.49 1709.76 1701.07 1692.41 1683.8 1675.23 1666.71 
1658.22 1649.78 1641.38 1633.02 1624.7 1616.42 1608.18 1599.98 1591.82 
1583.7 1575.62 1567.57 1559.57 1551.61 1543.68 1535.79 1527.94 1520.12 
1512.35 1504.6 1496.9 1489.25 1481.61 1474.02 1466.46 1458.94 1451.45 
1444 1436.59 1429.21 1421.87 1414.56 1407.28 1400.04 1392.84 1385.66 
1378.52 1371.41 1364.34 1357.3 1350.29 1343.31 1336.38 1329.44 1322.59 
1315.7 1308.79 1301.94 1295.12 1288.33 1281.56 1274.82 1268.11 1261.42 
1254.77 1248.14 1241.52 1234.95 1228.4 1221.87 1215.36 1208.89 1202.43 
1196 1189.6 1183.22 1176.86 1170.54 1164.23 1157.94 1151.68 1145.44 
1139.23 1133.03 1126.86 1120.71 1114.59 1108.48 1102.4 1096.34 1090.29 
1084.28 1078.27 1072.3 1066.34 1060.4 1054.48 1048.58 1042.71 1036.85 
1031.01 1025.19 1019.4 1013.62 1007.85 1002.11 996.377 990.67 984.98 
979.308 973.656 968.018 962.399 956.798 951.212 945.644 940.094 934.56 
929.043 923.542 918.057 912.588 907.135 901.702 896.278 890.977 885.695 
880.424 875.169 869.928 864.7 859.485 854.286 849.1 843.926 838.767 
833.621 828.487 823.368 818.261 813.166 808.083 803.015 797.958 792.913 
787.881 782.86 777.853 772.857 767.872 762.899 757.938 752.989 748.049 
743.123 738.205 733.301 728.407 723.524 718.653 713.788 708.937 704.097 
699.266 694.447 689.635 684.835 680.044 675.263 670.491 665.731 660.98 
656.238 651.505 646.782 642.067 637.361 632.664 627.978 623.299 618.63 
613.969 609.316 604.671 600.036 595.408 590.789 586.177 581.575 576.979 
572.393 567.813 563.241 558.677 554.12 549.572 545.029 540.494 535.968 
531.448 526.935 522.429 517.929 513.437 508.952 504.472 500 890.963 
885.675 880.407 875.161 869.94 864.741 859.564 854.408 849.277 844.167 
839.078 834.012 828.969 823.947 818.945 813.967 809.009 804.074 799.159 
794.266 789.395 784.543 779.714 774.905 770.116 765.35 760.603 755.878 
751.173 746.487 741.823 737.178 732.555 727.95 723.366 718.803 714.258 
709.736 705.23 700.746 696.281 691.836 687.408 683.002 678.615 674.246 
669.897 665.567 661.255 656.963 652.689 648.435 644.199 639.981 635.782 
631.602 627.44 623.297 619.172 615.065 610.975 606.904 602.851 598.817 
594.801 590.8 586.819 582.856 578.909 574.98 571.069 567.176 563.299 
559.44 555.598 551.774 547.967 544.176 540.402 536.645 532.906 529.183 
525.478 521.789 518.115 514.459 510.819 507.197 503.592 500 1314.06 
1305.54 1297.12 1288.73 1280.41 1272.14 1263.94 1255.78 1247.68 1239.63 
1231.64 1223.7 1215.81 1207.98 1200.19 1192.47 1184.79 1177.16 1169.59 
1162.07 1154.59 1147.17 1139.79 1132.47 1125.19 1117.96 1110.78 1103.64 
1096.56 1089.52 1082.53 1075.59 1068.69 1061.83 1055.02 1048.25 1041.53 
1034.87 1028.24 1021.64 1015.11 1008.6 1002.14 995.731 989.358 983.027 
976.739 970.492 964.286 958.12 951.994 945.91 939.865 933.861 927.896 
921.968 916.081 910.231 904.42 898.647 892.913 887.215 881.554 875.931 
870.344 864.794 859.279 853.802 848.36 842.952 837.58 832.245 826.942 
821.675 816.442 811.243 806.076 800.944 795.846 790.781 785.748 780.749 
775.781 770.844 765.941 761.069 756.23 751.421 746.644 741.897 737.18 
732.493 727.839 723.214 718.618 714.052 709.515 705.009 700.529 696.079 
691.66 687.267 682.903 678.567 674.258 669.978 665.726 661.499 657.301 
653.129 648.983 644.866 640.774 636.709 632.669 628.655 624.666 620.704 
616.766 612.855 608.967 605.106 601.267 597.455 593.666 589.901 586.16 
582.445 578.75 575.081 571.435 567.813 564.213 560.636 557.081 553.55 
550.041 546.554 543.091 539.647 536.226 532.827 529.45 526.094 522.759 
519.445 516.153 512.881 509.631 506.4 503.179 500 1945.29 1938.91 
1932.55 1926.22 1919.91 1913.62 1907.35 1901.09 1894.86 1888.65 1882.46 
1876.28 1870.13 1863.99 1857.87 1851.77 1845.68 1839.62 1833.57 1827.54 
1821.53 1815.53 1809.56 1803.59 1797.64 1791.72 1785.81 1779.9 1774.03 
1768.17 1762.31 1756.48 1750.66 1744.86 1739.07 1733.3 1727.54 1721.8 
1716.07 1710.35 1704.65 1698.97 1693.29 1687.63 1681.99 1676.36 1670.74 
1665.13 1659.54 1653.96 1648.4 1642.84 1637.3 1631.76 1626.25 1620.75 
1615.26 1609.78 1604.3 1598.85 1593.41 1587.97 1582.55 1577.14 1571.74 
1566.34 1560.97 1555.6 1550.24 1544.9 1539.56 1534.23 1528.9 1523.6 
1514.28 1504.97 1495.73 1486.55 1477.41 1468.33 1459.3 1450.32 1441.39 
1432.52 1423.69 1414.91 1406.19 1397.51 1388.88 1380.3 1371.77 1363.29 
1354.85 1346.46 1338.12 1329.83 1321.59 1313.39 1305.23 1297.14 1289.07 
1281.06 1273.1 1265.17 1257.3 1249.46 1241.68 1233.93 1226.24 1218.58 
1210.96 1203.39 1195.87 1188.39 1180.96 1173.55 1166.2 1158.88 1151.61 
1144.39 1137.19 1130.05 1122.94 1115.88 1108.85 1101.87 1094.92 1088.01 
1081.15 1074.32 1067.53 1060.79 1054.08 1047.4 1040.77 1034.17 1027.61 
1021.1 1014.61 1008.16 1001.76 995.386 989.052 982.754 976.493 970.266 
964.076 957.921 951.802 945.717 939.667 933.654 927.675 921.729 915.819 
909.942 904.099 898.289 892.514 886.772 881.064 875.388 869.745 864.133 
858.556 853.01 847.496 842.015 836.565 831.147 825.759 820.405 815.08 
809.786 804.523 799.291 794.089 788.918 783.777 778.665 773.584 768.53 
763.508 758.514 753.551 748.616 743.71 738.83 733.982 729.161 724.368 
719.603 714.866 710.155 705.475 700.821 696.194 691.594 687.022 682.476 
677.957 673.464 668.997 664.558 660.143 655.755 651.394 647.057 642.746 
638.46 634.2 629.964 625.756 621.569 617.409 613.273 609.163 605.075 
601.013 596.973 592.959 588.967 585 581.056 577.136 573.239 569.365 
565.514 561.686 557.881 554.099 550.338 546.602 542.887 539.193 535.522 
531.872 528.246 524.641 521.056 517.494 513.953 510.432 506.933 503.458 
500 1518.39 1513.16 1507.95 1502.76 1497.56 1492.38 1487.21 1482.05 
1476.9 1471.75 1466.62 1461.48 1456.37 1451.26 1446.16 1441.05 1435.97 
1430.89 1425.82 1420.75 1415.69 1410.65 1405.6 1400.57 1395.54 1390.52 
1385.51 1380.5 1375.5 1370.5 1365.52 1360.54 1355.56 1350.59 1345.63 
1340.68 1335.72 1330.78 1325.84 1320.91 1315.98 1311.06 1306.15 1301.23 
1296.33 1291.43 1286.53 1281.64 1276.76 1271.87 1267 1262.12 1257.25 
1252.39 1247.54 1242.68 1237.83 1232.99 1228.14 1223.3 1218.47 1213.63 
1208.81 1203.99 1199.17 1194.34 1189.54 1184.72 1179.92 1175.11 1170.31 
1165.51 1160.72 1155.92 1151.13 1146.34 1141.55 1136.76 1131.98 1127.21 
1122.42 1117.65 1112.88 1108.11 1103.33 1098.56 1093.79 1089.02 1084.26 
1079.5 1074.73 1069.97 1065.2 1060.44 1055.69 1050.92 1043.84 1036.8 
1029.79 1022.82 1015.9 1009 1002.15 995.33 988.551 981.809 975.104 
968.434 961.804 955.209 948.649 942.125 935.639 929.186 922.77 916.391 
910.046 903.735 897.46 891.221 885.016 878.845 872.709 866.608 860.538 
854.504 848.504 842.538 836.604 830.705 824.838 819.005 813.205 807.434 
801.702 795.998 790.326 784.687 779.08 773.507 767.964 762.452 756.972 
751.522 746.106 740.719 735.361 730.038 724.743 719.48 714.246 709.042 
703.868 698.724 693.61 688.525 683.471 678.446 673.449 668.482 663.543 
658.634 653.753 648.901 644.076 639.282 634.514 629.775 625.062 620.379 
615.723 611.094 606.492 601.919 597.372 592.852 588.359 583.892 579.453 
575.04 570.653 566.293 561.958 557.65 553.367 549.111 544.88 540.674 
536.495 532.34 528.21 524.106 520.026 515.973 511.942 507.937 503.955 
500 1046.13 1041.36 1036.57 1031.79 1027 1022.22 1017.44 1012.65 
1007.86 1003.08 998.29 993.502 988.715 983.927 979.138 974.347 969.555 
964.763 959.97 955.174 950.377 945.577 940.777 935.976 931.172 926.364 
921.556 916.745 911.931 907.115 902.296 897.473 892.65 887.823 882.991 
878.158 873.319 868.477 863.633 858.784 853.932 849.076 844.215 839.35 
834.481 829.605 824.727 819.843 814.954 810.06 805.162 800.257 795.347 
790.429 785.508 780.581 775.647 770.706 765.76 760.805 755.846 750.877 
745.903 740.921 735.931 730.934 725.929 720.915 715.894 710.864 705.825 
700.778 695.721 690.655 685.581 680.497 675.402 670.296 665.181 660.055 
654.918 649.771 644.612 639.442 634.259 629.065 623.86 618.64 613.408 
608.163 602.905 597.633 592.346 587.046 581.73 576.402 571.056 565.694 
560.317 554.923 549.513 544.086 538.641 533.178 527.697 522.198 516.678 
511.139 505.58 500 
VECTORS radiiVectors double
-2499.99 -6.59023 -5.4093 -2491.85 -13.1128 -5.39175 -2483.62 -26.1434 -5.37407 
-2475.37 -39.0891 -5.35652 -2467.08 -51.9422 -5.33902 -2458.75 -64.7156 -5.32159 
-2450.38 -77.4102 -5.30421 -2441.96 -90.0159 -5.28687 -2433.52 -102.524 -5.26961 
-2425.03 -114.954 -5.25239 -2416.51 -127.296 -5.23524 -2407.95 -139.558 -5.21815 
-2399.35 -151.741 -5.20109 -2390.71 -163.833 -5.1841 -2382.05 -175.841 -5.16718 
-2373.34 -187.761 -5.15029 -2364.61 -199.584 -5.13347 -2355.83 -211.351 -5.1167 
-2347.03 -223.019 -5.09998 -2338.2 -234.597 -5.08333 -2329.33 -246.117 -5.06673 
-2320.43 -257.513 -5.05018 -2311.5 -268.848 -5.03368 -2302.53 -280.102 -5.01723 
-2293.54 -291.253 -5.00084 -2284.52 -302.35 -4.98451 -2275.47 -313.345 -4.96823 
-2266.4 -324.247 -4.952 -2257.29 -335.074 -4.93582 -2248.16 -345.831 -4.9197 
-2239.01 -356.501 -4.90364 -2229.82 -367.07 -4.88761 -2220.62 -377.574 -4.87166 
-2211.37 -387.996 -4.85573 -2202.12 -398.312 -4.83987 -2192.84 -408.576 -4.82406 
-2183.53 -418.76 -4.8083 -2174.2 -428.821 -4.79259 -2164.85 -438.831 -4.77694 
-2155.48 -448.743 -4.76135 -2146.08 -458.61 -4.74579 -2136.66 -468.421 -4.73029 
-2127.25 -477.981 -4.71484 -2117.78 -487.633 -4.69944 -2108.29 -497.182 -4.68408 
-2098.8 -506.608 -4.66879 -2089.28 -515.985 -4.65354 -2079.77 -525.154 -4.63833 
-2070.22 -534.373 -4.62319 -2060.64 -543.57 -4.60809 -2051.07 -552.56 -4.59304 
-2041.46 -561.558 -4.57804 -2031.82 -570.478 -4.56306 -2022.24 -579.127 -4.54817 
-2012.58 -587.878 -4.5333 -2002.9 -596.607 -4.5185 -1993.24 -605.124 -4.50374 
-1983.57 -613.567 -4.48904 -1973.85 -622.005 -4.47436 -1964.16 -630.254 -4.45974 
-1954.44 -638.543 -4.4452 -1944.68 -646.764 -4.43066 -1934.96 -654.783 -4.41619 
-1925.19 -662.826 -4.40176 -1915.43 -670.756 -4.38739 -1905.65 -678.627 -4.37305 
-1895.86 -686.413 -4.35877 -1886.09 -694.045 -4.34454 -1876.27 -701.746 -4.33035 
-1866.45 -709.302 -4.31619 -1856.66 -716.708 -4.30209 -1846.79 -724.205 -4.28804 
-1836.98 -731.487 -4.27404 -1827.15 -738.711 -4.26007 -1817.33 -745.834 -4.24617 
-1809.49 -748.039 -4.23226 -1794.92 -766.332 1.95933 -1784.11 -766.524 -0.677402 
-1771.51 -770.746 -5.8584 -1759.03 -774.757 -10.9 -1746.61 -778.637 -15.8578 
-1734.2 -782.468 -20.7857 -1721.8 -786.273 -25.6974 -1709.44 -790.005 -30.5622 
-1697.15 -793.569 -35.3216 -1684.84 -797.166 -40.1028 -1672.6 -800.601 -44.7814 
-1660.4 -803.984 -49.4251 -1648.22 -807.281 -54.0181 -1636.09 -810.496 -58.5574 
-1623.93 -813.771 -63.1374 -1611.89 -816.786 -67.5516 -1599.86 -819.787 -71.9584 
-1587.87 -822.69 -76.3023 -1575.92 -825.526 -80.6038 -1563.99 -828.32 -84.8819 
-1552.06 -831.112 -89.1583 -1540.2 -833.742 -93.3338 -1528.44 -836.239 -97.4205 
-1516.64 -838.763 -101.529 -1504.99 -841.044 -105.478 -1493.27 -843.437 -109.503 
-1481.57 -845.78 -113.498 -1469.94 -847.999 -117.414 -1458.4 -850.082 -121.241 
-1446.86 -852.139 -125.056 -1435.34 -854.161 -128.847 -1423.89 -856.095 -132.582 
-1412.44 -857.976 -136.288 -1401.09 -859.744 -139.916 -1389.71 -861.526 -143.56 
-1378.4 -863.21 -147.139 -1367.19 -864.731 -150.611 -1356 -866.226 -154.067 
-1344.73 -867.818 -157.595 -1333.63 -869.173 -160.962 -1322.56 -870.481 -164.3 
-1311.49 -871.792 -167.644 -1300.46 -873.009 -170.93 -1289.52 -874.123 -174.145 
-1278.59 -875.225 -177.354 -1267.68 -876.282 -180.538 -1256.89 -877.198 -183.623 
-1246.02 -878.178 -186.763 -1235.26 -879.032 -189.816 -1224.55 -879.812 -192.82 
-1213.83 -880.615 -195.846 -1203.22 -881.251 -198.758 -1192.71 -881.778 -201.59 
-1182.18 -882.327 -204.443 -1171.58 -882.942 -207.357 -1161.16 -883.337 -210.109 
-1150.81 -883.667 -212.818 -1140.38 -884.069 -215.588 -1129.97 -884.427 -218.334 
-1119.82 -884.512 -220.874 -1109.58 -884.695 -223.496 -1099.32 -884.884 -226.129 
-1089.23 -884.882 -228.621 -1079.04 -884.984 -231.203 -1068.98 -884.943 -233.678 
-1059.02 -884.788 -236.07 -1049.09 -884.613 -238.452 -1038.99 -884.588 -240.964 
-1029.13 -884.314 -243.284 -1019.42 -883.898 -245.495 -1009.64 -883.541 -247.761 
-999.971 -883.087 -249.953 -990.076 -882.825 -252.315 -980.381 -882.365 -254.522 
-970.911 -881.714 -256.571 -963.541 -879.174 -257.028 -948.464 -883.296 -263.532 
-942.484 -878.83 -265.399 -935.414 -874.535 -270.424 -928.285 -870.261 -275.667 
-921.239 -865.965 -280.646 -914.247 -861.659 -285.461 -907.145 -857.354 -290.56 
-900.187 -853.029 -295.25 -893.232 -848.694 -299.909 -886.168 -844.364 -304.855 
-879.255 -840.019 -309.387 -872.337 -835.663 -313.909 -865.448 -831.294 -318.326 
-858.654 -826.924 -322.508 -851.662 -822.548 -327.174 -844.808 -818.16 -331.466 
-838.046 -813.766 -335.515 -831.175 -809.366 -339.827 -824.394 -804.957 -343.889 
-817.73 -800.544 -347.656 -810.971 -796.125 -351.656 -804.171 -791.691 -355.719 
-797.477 -787.259 -359.527 -790.828 -782.826 -363.227 -784.188 -778.381 -366.873 
-777.475 -773.925 -370.681 -770.898 -769.474 -374.168 -764.341 -765.013 -377.58 
-757.766 -760.55 -381.041 -751.194 -756.077 -384.476 -744.646 -751.599 -387.841 
-738.144 -747.117 -391.085 -731.714 -742.643 -394.18 -725.231 -738.151 -397.362 
-718.799 -733.663 -400.436 -712.442 -729.179 -403.337 -705.989 -724.667 -406.411 
-699.662 -720.18 -409.244 -693.32 -715.671 -412.06 -686.94 -711.156 -414.965 
-680.61 -706.639 -417.746 -674.393 -702.14 -420.294 -668.153 -697.625 -422.869 
-661.922 -693.11 -425.425 -655.775 -688.609 -427.816 -649.569 -684.084 -430.3 
-643.355 -679.546 -432.776 -637.273 -675.038 -435.004 -631.163 -670.517 -437.276 
-625.102 -665.998 -439.443 -619.09 -661.484 -441.501 -613.042 -656.957 -443.627 
-607.017 -652.426 -445.688 -601 -647.892 -447.73 -595.023 -643.36 -449.689 
-589.151 -638.854 -451.454 -583.291 -634.346 -453.191 -577.426 -629.828 -454.922 
-571.581 -625.309 -456.611 -565.737 -620.784 -458.291 -559.893 -616.25 -459.956 
-554.127 -611.736 -461.481 -548.448 -607.246 -462.854 -542.73 -602.735 -464.282 
-536.992 -598.209 -465.732 -531.328 -593.703 -467.052 -525.685 -589.197 -468.329 
-520.069 -584.693 -469.552 -514.602 -580.241 -470.531 -510.369 -576.265 -469.583 
-500.79 -571.854 -474.876 -497.337 -567.315 -473.971 -493.423 -561.685 -474.867 
-489.504 -556.057 -475.745 -485.548 -550.357 -476.73 -481.611 -544.712 -477.614 
-477.664 -539.06 -478.495 -473.778 -533.555 -479.133 -469.902 -528.084 -479.712 
-465.931 -522.417 -480.582 -462.026 -516.904 -481.201 -458.164 -511.497 -481.649 
-454.278 -506.049 -482.152 -450.356 -500.537 -482.736 -446.482 -495.138 -483.144 
-442.627 -489.791 -483.463 -438.764 -484.439 -483.781 -434.903 -479.101 -484.066 
-431.05 -473.789 -484.307 -427.217 -468.529 -484.461 -423.37 -463.253 -484.629 
-419.533 -458.006 -484.745 -415.693 -452.767 -484.842 -411.923 -447.674 -484.729 
-408.136 -442.559 -484.639 -404.282 -437.323 -484.698 -400.514 -432.266 -484.51 
-396.771 -427.265 -484.239 -392.946 -422.117 -484.151 -389.18 -417.093 -483.89 
-385.436 -412.12 -483.558 -381.675 -407.125 -483.239 -377.981 -402.265 -482.746 
-374.229 -397.305 -482.368 -370.48 -392.361 -481.96 -366.81 -387.574 -481.35 
-363.12 -382.76 -480.762 -359.427 -377.947 -480.167 -355.718 -373.115 -479.586 
-352.058 -368.381 -478.877 -348.422 -363.698 -478.103 -344.784 -359.022 -477.308 
-341.101 -354.275 -476.59 -337.474 -349.636 -475.737 -333.917 -345.129 -474.728 
-330.283 -340.496 -473.851 -326.663 -335.895 -472.93 -323.095 -331.392 -471.893 
-319.541 -326.924 -470.811 -315.969 -322.432 -469.745 -312.417 -317.982 -468.626 
-308.883 -313.573 -467.454 -305.37 -309.206 -466.23 -301.868 -304.868 -464.968 
-298.37 -300.541 -463.689 -294.879 -296.236 -462.378 -291.396 -291.952 -461.037 
-287.953 -287.74 -459.616 -284.488 -283.502 -458.213 -281.06 -279.331 -456.735 
-277.652 -275.201 -455.211 -274.199 -271.008 -453.741 -270.822 -266.943 -452.137 
-267.453 -262.897 -450.509 -264.118 -258.913 -448.816 -260.768 -254.913 -447.129 
-257.375 -250.856 -445.492 -254.06 -246.925 -443.726 -250.824 -243.122 -441.837 
-247.512 -239.214 -440.039 -244.167 -235.262 -438.273 -240.939 -231.493 -436.335 
-237.691 -227.703 -434.408 -234.472 -223.963 -432.431 -231.246 -220.222 -430.452 
-228.023 -216.491 -428.456 -224.844 -212.834 -426.388 -221.68 -209.204 -424.292 
-218.534 -205.611 -422.158 -215.373 -202.001 -420.033 -212.255 -198.461 -417.843 
-209.775 -195.837 -414.891 -206.705 -192.377 -412.631 -495.92 -569.314 -473.034 
-489.273 -567.573 -472.116 -482.612 -565.827 -471.213 -475.841 -564.12 -470.373 
-469.209 -562.346 -469.474 -462.678 -560.52 -468.534 -456.131 -558.691 -467.609 
-449.741 -556.79 -466.617 -443.266 -554.915 -465.678 -436.848 -553.009 -464.718 
-430.569 -551.039 -463.7 -424.296 -549.061 -462.69 -418.052 -547.064 -461.674 
-411.82 -545.053 -460.662 -405.706 -542.991 -459.602 -399.504 -540.951 -458.597 
-393.43 -538.859 -457.537 -387.592 -536.683 -456.376 -381.47 -534.587 -455.36 
-375.477 -532.443 -454.29 -369.718 -530.22 -453.123 -363.881 -528.01 -452 
-358.11 -525.774 -450.858 -352.294 -523.542 -449.746 -346.64 -521.255 -448.568 
-341.039 -518.948 -447.378 -335.388 -516.644 -446.218 -329.847 -514.305 -445.02 
-324.327 -511.952 -443.822 -318.823 -509.585 -442.625 -313.422 -507.188 -441.394 
-308.009 -504.784 -440.177 -302.594 -502.372 -438.972 -297.443 -499.896 -437.657 
-292.258 -497.419 -436.369 -286.939 -494.962 -435.151 -281.828 -492.455 -433.851 
-276.755 -489.935 -432.545 -271.659 -487.409 -431.258 -266.579 -484.873 -429.975 
-261.625 -482.308 -428.647 -256.746 -479.724 -427.298 -251.847 -477.133 -425.966 
-246.951 -474.536 -424.644 -242.154 -471.916 -423.29 -237.479 -469.273 -421.894 
-232.732 -466.631 -420.539 -228.126 -463.965 -419.134 -223.455 -461.298 -417.768 
-218.852 -458.616 -416.383 -214.391 -455.913 -414.949 -209.831 -453.211 -413.567 
-205.369 -450.494 -412.155 -201.02 -447.759 -410.705 -196.624 -445.02 -409.286 
-192.381 -442.265 -407.814 -188.041 -439.507 -406.393 -183.696 -436.742 -404.983 
-179.736 -433.953 -403.427 -175.564 -431.164 -401.969 -171.399 -428.368 -400.517 
-167.357 -425.561 -399.026 -163.299 -422.747 -397.553 -159.381 -419.925 -396.034 
-155.499 -417.096 -394.511 -151.488 -414.257 -393.049 -147.672 -411.414 -391.52 
-143.938 -408.565 -389.971 -140.139 -405.708 -388.457 -136.458 -402.847 -386.906 
-132.758 -399.978 -385.374 -129.078 -397.103 -383.846 -125.476 -394.223 -382.296 
-121.991 -391.344 -380.711 -118.49 -388.458 -379.143 -114.941 -385.561 -377.606 
-111.52 -382.666 -376.029 -108.156 -379.769 -374.44 -104.777 -376.864 -372.867 
-101.519 -373.964 -371.258 -98.2564 -371.057 -369.663 -95.0199 -368.146 -368.068 
-91.8255 -365.234 -366.469 -88.6714 -362.319 -364.864 -85.6004 -359.409 -363.237 
-82.5102 -356.488 -361.63 -79.4306 -353.563 -360.028 -76.4716 -350.65 -358.393 
-74.7868 -347.959 -356.281 -71.7345 -345.023 -354.701 -940.274 -880.073 -260.985 
-929.935 -879.391 -257.564 -919.724 -878.635 -254.198 -909.574 -877.827 -250.863 
-899.363 -877.119 -247.508 -889.252 -876.319 -244.199 -879.333 -875.351 -240.971 
-869.426 -874.39 -237.753 -859.443 -873.542 -234.511 -849.697 -872.454 -231.366 
-840 -871.345 -228.245 -830.349 -870.215 -225.147 -820.791 -869.006 -222.09 
-811.259 -867.807 -219.047 -801.747 -866.605 -216.016 -792.325 -865.343 -213.025 