# vtk DataFile Version 3.0
vtk output
ASCII
DATASET POLYDATA
POINTS 52 float
0 0 0 0.1 0 0 0.2 0 0
0.3 0 0 0.4 0 0 0.5 0 0
0.6 0 0 0.7 0 0 0.8 0 0
0.9 0 0 1 0 0 1.1 0 0
1.2 0 0 1.3 0 0 1.4 0 0
1.5 0 0 1.6 0 0 1.7 0 0
1.7866 0.05 0 1.87321 0.1 0 1.95981 0.15 0
2.04641 0.2 0 2.13301 0.25 0 2.21962 0.3 0
2.30622 0.35 0 2.39282 0.4 0 2.47942 0.45 0
2.56603 0.5 0 2.65263 0.55 0 2.73923 0.6 0
2.82583 0.65 0 2.91244 0.7 0 2.99904 0.75 0
3.08564 0.8 0 3.17224 0.85 0 1.7866 -0.05 0
1.87321 -0.1 0 1.95981 -0.15 0 2.04641 -0.2 0
2.13301 -0.25 0 2.21962 -0.3 0 2.30622 -0.35 0
2.39282 -0.4 0 2.47942 -0.45 0 2.56603 -0.5 0
2.65263 -0.55 0 2.73923 -0.6 0 2.82583 -0.65 0
2.91244 -0.7 0 2.99904 -0.75 0 3.08564 -0.8 0
3.17224 -0.85 0
LINES 3 57
18 0 1 2 3 4 5 6 7 8 9 10 11 12 13 14 15 16 17
18 17 18 19 20 21 22 23 24 25 26 27 28 29 30 31 32 33 34
18 17 35 36 37 38 39 40 41 42 43 44 45 46 47 48 49 50 51

POINT_DATA 52
SCALARS radiiScalars double
LOOKUP_TABLE default
0.381972 0.381972 0.381972 0.381972 0.381972 0.381972 0.381972 0.381972
0.381972 0.381972 0.381972 0.381972 0.381972 0.381972 0.381972 0.381972
0.381972 0.381972 0.381972 0.381972 0.381972 0.381972 0.381972 0.381972
0.381972 0.381972 0.381972 0.381972 0.381972 0.381972 0.381972 0.381972
0.381972 0.381972 0.381972 0.381972 0.381972 0.381972 0.381972 0.381972
0.381972 0.381972 0.381972 0.381972 0.381972 0.381972 0.381972 0.381972
0.381972 0.381972 0.381972 0.381972
