# vtk DataFile Version 3.0
vtk output
ASCII
DATASET POLYDATA
POINTS 1523 float
0 0 0 0.315159 -0.00644712 -0.0592557 0.611326 -0.018357 -0.0974261
0.869509 -0.0411924 -0.0934261 1.07072 -0.0804162 -0.0261703 1.19974 -0.139897 0.122009
1.27179 -0.210669 0.341272 1.31677 -0.277578 0.608511 1.36468 -0.325429 0.900534
1.44529 -0.33924 1.19417 1.57398 -0.317757 1.46801 1.74323 -0.281611 1.70338
1.94346 -0.253388 1.88188 2.1651 -0.255673 1.98512 2.39886 -0.308732 1.99735
2.63896 -0.404396 1.93572 2.88199 -0.515433 1.8394 3.12456 -0.61426 1.74795
3.36331 -0.673292 1.70095 3.59561 -0.670403 1.73019 3.82292 -0.613782 1.82426
4.04817 -0.522076 1.9568 4.27426 -0.413945 2.1015 4.50408 -0.307974 2.23208
4.73931 -0.215417 2.33249 4.9794 -0.133871 2.4056 5.22354 -0.059444 2.45634
5.47092 0.0117542 2.48965 5.72074 0.0834413 2.51034 5.97244 0.156311 2.52097
6.22562 0.228487 2.52221 6.47992 0.298012 2.51466 6.73496 0.36293 2.49892
6.99043 0.422051 2.47629 7.24624 0.476784 2.45042 7.50237 0.529087 2.42545
7.75878 0.580919 2.40554 8.01546 0.634061 2.39451 8.27249 0.688003 2.39197
8.53004 0.740636 2.3946 8.78828 0.78982 2.39902 9.04736 0.833588 2.40203
9.30721 0.87215 2.40276 9.56756 0.907223 2.40196 9.82817 0.94055 2.40039
10.0692 0.84881 2.44816 10.3069 0.755197 2.50427 10.5379 0.657837 2.57706
10.7594 0.554584 2.67284 10.9717 0.440762 2.77913 11.177 0.310322 2.87322
11.3771 0.157495 2.93429 11.567 -0.0195612 2.96759 11.7371 -0.219898 2.99694
11.8764 -0.442439 3.04036 11.9678 -0.685752 3.08403 11.993 -0.94804 3.10442
11.9803 -1.21669 3.10056 12.0204 -1.46449 3.10199 12.1717 -1.66982 3.13255
12.3876 -1.83007 3.19344 12.6109 -1.95018 3.27882 12.8293 -2.05665 3.36703
13.045 -2.18114 3.43258 13.2632 -2.32132 3.47313 13.4915 -2.44528 3.50657
13.7333 -2.53516 3.54512 13.9818 -2.60793 3.58634 14.2291 -2.68417 3.62602
14.4735 -2.76865 3.66362 14.7168 -2.85547 3.70108 14.9609 -2.93993 3.73952
15.206 -3.02251 3.77694 15.4519 -3.10489 3.81067 15.6982 -3.18747 3.84263
15.9432 -3.2687 3.88179 16.1857 -3.34699 3.93699 16.4257 -3.42256 4.00728
16.6645 -3.49688 4.08465 16.9035 -3.57112 4.16128 17.1444 -3.64362 4.23224
17.3889 -3.71147 4.29388 17.6385 -3.77221 4.34293 17.8922 -3.82614 4.37809
18.1484 -3.87448 4.39874 18.4058 -3.91835 4.40514 18.6638 -3.95831 4.40304
18.9228 -3.99474 4.40018 19.1826 -4.02826 4.40343 19.4423 -4.06276 4.40935
19.7 -4.10421 4.40791 19.954 -4.15845 4.38938 20.204 -4.22675 4.35512
20.4513 -4.30525 4.31905 20.6974 -4.38985 4.2957 20.9431 -4.47758 4.29127
21.1886 -4.56772 4.29634 21.4336 -4.65978 4.29978 21.6781 -4.75319 4.29584
21.9219 -4.84723 4.29262 22.165 -4.94112 4.30043 22.4076 -5.03365 4.32577
22.6512 -5.12187 4.36159 22.8976 -5.2025 4.3978 23.148 -5.27316 4.42706
23.4003 -5.33603 4.45585 23.6514 -5.39477 4.495 23.8989 -5.45288 4.55257
24.1439 -5.51293 4.62133 24.3884 -5.57718 4.6889 24.6345 -5.64762 4.74381
24.882 -5.72403 4.78121 25.1301 -5.80528 4.79911 25.3778 -5.89077 4.79799
25.6228 -5.98273 4.79231 25.8625 -6.08437 4.80134 26.0951 -6.19771 4.83564
26.3226 -6.3208 4.87751 26.5475 -6.45094 4.90362 26.7713 -6.58581 4.90414
26.9935 -6.72395 4.89786 27.2134 -6.86405 4.90683 27.4299 -7.00687 4.93828
27.6412 -7.15597 4.97889 27.8459 -7.31498 5.01428 28.0442 -7.48308 5.04203
28.2391 -7.65434 5.07354 28.4333 -7.82263 5.1208 28.6267 -7.98748 5.18488
28.8153 -8.15619 5.25177 28.9946 -8.33665 5.30637 29.1623 -8.53293 5.34076
29.3219 -8.73906 5.36579 29.4782 -8.94752 5.39535 29.6351 -9.1516 5.44095
29.7952 -9.34971 5.49991 29.9602 -9.54219 5.56428 30.1317 -9.72936 5.62628
30.3097 -9.91179 5.68338 30.492 -10.0904 5.73948 30.6765 -10.2659 5.79885
30.8613 -10.4396 5.86376 31.0463 -10.6129 5.92807 31.2321 -10.7876 5.98344
31.419 -10.9655 6.0224 31.6062 -11.1462 6.04935 31.7918 -11.3283 6.0771
31.9742 -11.5101 6.11843 32.153 -11.6913 6.17634 32.3303 -11.8726 6.24029
32.5081 -12.0554 6.29875 32.6878 -12.2403 6.34257 32.8689 -12.4269 6.37273
33.0498 -12.6147 6.3929 33.2293 -12.8028 6.40658 33.4082 -12.9909 6.41417
33.5892 -13.1789 6.41286 33.7752 -13.3666 6.3997 33.9667 -13.5524 6.36981
34.1559 -13.7285 6.31123 34.3329 -13.8857 6.21042 34.491 -14.0186 6.05952
34.6379 -14.1403 5.87944 34.786 -14.2698 5.70022 34.9439 -14.4225 5.54884
35.1052 -14.5998 5.4399 35.2599 -14.7993 5.38449 35.4039 -15.0162 5.37817
35.5409 -15.2425 5.39708 35.6741 -15.4704 5.42076 35.8017 -15.6955 5.45752
35.9198 -15.9146 5.52642 36.0299 -16.1258 5.63207 36.1419 -16.3296 5.75559
36.2656 -16.5266 5.87712 36.4016 -16.7185 5.99085 36.5438 -16.9079 6.10059
36.5425 -17.1738 6.13348 36.5725 -17.426 6.18022 36.6615 -17.6523 6.25311
36.7961 -17.8578 6.34718 36.9382 -18.0582 6.4469 37.0719 -18.2624 6.53853
37.2056 -18.4716 6.61054 37.345 -18.6857 6.65867 37.4865 -18.9021 6.69635
37.6262 -19.1182 6.73729 37.7657 -19.3333 6.78188 37.9084 -19.5471 6.82617
38.0601 -19.7549 6.86879 38.2284 -19.9487 6.91031 38.4164 -20.1242 6.95157
38.6183 -20.2844 6.99377 38.8278 -20.4329 7.03765 39.0438 -20.5718 7.08064
39.2666 -20.7023 7.11933 39.4928 -20.8261 7.16018 39.7149 -20.945 7.21946
39.9314 -21.0577 7.30583 40.1512 -21.1572 7.41355 40.3761 -21.2486 7.52644
40.5828 -21.3747 7.60283 40.7523 -21.5664 7.61517 40.8959 -21.7925 7.59984
41.0287 -22.0183 7.5954 41.1571 -22.2424 7.60128 41.2846 -22.4689 7.60711
41.4118 -22.697 7.59768 41.5343 -22.925 7.55826 41.6368 -23.1503 7.47795
41.711 -23.3754 7.36751 41.7678 -23.6132 7.28106 41.8179 -23.8654 7.23469
41.8682 -24.1106 7.1682 41.921 -24.3432 7.06311 41.9739 -24.5806 6.9672
42.0286 -24.83 6.91189 42.0932 -25.0827 6.89925 42.1736 -25.3308 6.90438
42.2726 -25.5686 6.87955 42.3907 -25.7941 6.8191 42.5261 -26.0081 6.74979
42.6741 -26.2164 6.70277 42.8287 -26.4256 6.69997 42.9838 -26.6346 6.69854
43.1354 -26.8404 6.65306 43.2852 -27.0442 6.58227 43.4354 -27.2486 6.51909
43.5866 -27.4579 6.49832 43.737 -27.6714 6.50598 43.8822 -27.8834 6.47173
44.0213 -28.096 6.41074 44.1559 -28.3173 6.39723 44.2834 -28.5451 6.40282
44.4008 -28.7724 6.35858 44.5126 -29.0011 6.30123 44.6256 -29.2343 6.28898
44.7416 -29.4688 6.30054 44.8611 -29.7004 6.30321 44.9837 -29.9297 6.29895
45.1091 -30.1576 6.29628 45.2377 -30.3848 6.30269 45.3665 -30.6121 6.31065
45.4861 -30.8405 6.28536 45.5933 -31.0715 6.22748 45.6961 -31.3076 6.19489
45.7957 -31.549 6.20134 45.8824 -31.7932 6.19056 45.9557 -32.0381 6.14041
46.0284 -32.2828 6.08287 46.1073 -32.5267 6.03661 46.189 -32.7698 5.99324
46.2703 -33.0125 5.94657 46.3518 -33.256 5.90203 46.4343 -33.5007 5.86302
46.5169 -33.7428 5.81553 46.5984 -33.9783 5.74341 46.6789 -34.2098 5.65467
46.7589 -34.4434 5.56957 46.8371 -34.68 5.49204 46.9104 -34.913 5.40359
46.9764 -35.1377 5.2907 47.0389 -35.3597 5.16865 47.1029 -35.5873 5.06031
47.1694 -35.8237 4.97418 47.2339 -36.0658 4.90014 47.2926 -36.3095 4.82665
47.3468 -36.5495 4.74174 47.3988 -36.7804 4.63446 47.449 -37.0053 4.5124
47.4967 -37.2342 4.398 47.54 -37.4743 4.30747 47.5743 -37.7218 4.23222
47.5948 -37.971 4.15836 47.604 -38.2193 4.08066 47.6108 -38.4673 4.00132
47.6212 -38.7154 3.92232 47.629 -38.9636 3.84386 47.625 -39.2116 3.76565
47.6077 -39.4595 3.68817 47.5846 -39.708 3.61276 47.5625 -39.9575 3.53994
47.5425 -40.2059 3.46444 47.5233 -40.4506 3.37865 47.5042 -40.69 3.27855
47.4863 -40.9251 3.16734 47.4709 -41.1574 3.04899 47.4602 -41.3869 2.92503
47.458 -41.612 2.79404 47.4677 -41.8309 2.65443 47.4895 -42.0435 2.50638
47.5179 -42.2523 2.35284 47.5467 -42.4597 2.19704 47.5712 -42.668 2.04172
47.59 -42.8776 1.88782 47.6032 -43.0886 1.73587 47.6105 -43.301 1.58642
47.6144 -43.515 1.43991 47.6251 -43.7307 1.29656 47.6541 -43.9484 1.15655
47.713 -44.1684 1.02006 47.8094 -44.3904 0.887194 47.9244 -44.6116 0.757688
48.029 -44.8283 0.63111 48.0944 -45.0368 0.507032 48.0915 -45.2333 0.385025
48.0053 -45.4164 0.264348 47.8594 -45.591 0.143391 47.6838 -45.7634 0.0203981
47.5085 -45.9397 -0.106385 47.3634 -46.1259 -0.238699 47.2638 -46.325 -0.376862
47.1993 -46.5341 -0.518692 47.1572 -46.7499 -0.661753 47.1243 -46.9687 -0.803611
47.0902 -47.1882 -0.94207 47.0528 -47.4086 -1.07583 47.0119 -47.631 -1.2038
46.9675 -47.8565 -1.32488 46.92 -48.085 -1.43984 46.8715 -48.3144 -1.55339
46.8241 -48.5422 -1.67075 46.7798 -48.7664 -1.79616 46.7396 -48.9891 -1.92549
46.7038 -49.2146 -2.05041 46.6727 -49.4468 -2.16324 46.6462 -49.6841 -2.26739
46.6239 -49.9202 -2.37531 46.6051 -50.1502 -2.49684 46.5888 -50.3792 -2.62035
46.5736 -50.6168 -2.72452 46.5565 -50.8642 -2.80616 46.5313 -51.1068 -2.89622
46.4923 -51.3314 -3.02091 46.4367 -51.5401 -3.16906 46.3643 -51.739 -3.32125
46.2855 -51.9354 -3.47273 46.215 -52.1344 -3.62694 46.1616 -52.3223 -3.79859
46.1277 -52.4866 -3.99765 46.0998 -52.6535 -4.19572 46.0667 -52.847 -4.36697
46.0431 -53.0409 -4.53855 46.0387 -53.213 -4.73351 46.0363 -53.3791 -4.93532
46.0237 -53.555 -5.12739 46.0081 -53.7447 -5.30513 45.994 -53.9481 -5.46736
45.9662 -54.1579 -5.6192 45.9159 -54.3653 -5.76888 45.8656 -54.5639 -5.92918
45.8331 -54.7529 -6.10507 45.8143 -54.9446 -6.2811 45.8019 -55.1488 -6.44402
45.7903 -55.3496 -6.60947 45.7748 -55.5238 -6.8017 45.753 -55.6782 -7.01316
45.7254 -55.8491 -7.20483 45.6929 -56.0596 -7.35261 45.6572 -56.2783 -7.49222
45.6206 -56.4708 -7.66261 45.5871 -56.6464 -7.85343 45.5605 -56.8248 -8.0421
45.5411 -57.0101 -8.22385 45.527 -57.1985 -8.40272 45.5181 -57.3868 -8.58236
45.5156 -57.572 -8.76589 45.5187 -57.7571 -8.94964 45.5241 -57.9534 -9.12005
45.5289 -58.1645 -9.2728 45.5332 -58.3707 -9.4311 45.5381 -58.5593 -9.61017
45.5457 -58.7424 -9.79607 45.5572 -58.9313 -9.97578 45.5701 -59.1172 -10.1573
45.5812 -59.2881 -10.3522 45.5922 -59.4491 -10.5567 45.607 -59.6137 -10.7593
45.6255 -59.7923 -10.9493 45.6408 -59.9908 -11.1165 45.6482 -60.2078 -11.2603
45.6515 -60.4232 -11.4067 45.6548 -60.6216 -11.5754 45.658 -60.8165 -11.7484
45.6603 -61.0259 -11.9018 45.66 -61.2497 -12.0357 45.6549 -61.4768 -12.1651
45.6477 -61.6987 -12.3015 45.6455 -61.91 -12.4525 45.6507 -62.1093 -12.6197
45.6583 -62.3014 -12.7964 45.6637 -62.4925 -12.9745 45.6678 -62.6908 -13.143
45.6724 -62.904 -13.2918 45.6788 -63.1241 -13.4314 45.6877 -63.3328 -13.5857
[...]
POINT_DATA 1523
SCALARS radiiScalars double
LOOKUP_TABLE default
2.22769 2.22746 2.22693 2.22634 2.22596 2.22616 2.22853 2.23522 2.24838
2.27012 2.30047 2.33607 2.37327 2.40842 2.43807 2.4613 2.47884 2.49148
2.50001 2.50511 2.50706 2.50595 2.50189 2.495 2.48545 2.47357 2.45969
2.44415 2.42733 2.41009 2.39374 2.37961 2.36901 2.36217 2.35563 2.34512
2.3264 2.29546 2.25159 2.19638 2.13146 2.05904 1.98883 1.93572 1.91469
1.88972 1.83012 1.75884 1.69684 1.6465 1.60012 1.55038 1.49664 1.44292
1.3922 1.34133 1.28538 1.22817 1.18533 1.16775 1.17045 1.1854 1.20381
1.21717 1.22764 1.24662 1.27921 1.31516 1.34289 1.36085 1.37426 1.38731
1.39982 1.4106 1.41954 1.42813 1.43788 1.44888 1.46014 1.47104 1.48379
1.5019 1.52794 1.55931 1.59165 1.62094 1.64541 1.66411 1.67622 1.68233
1.68392 1.68247 1.67856 1.67175 1.66158 1.64873 1.63611 1.62686 1.62295
1.62325 1.62618 1.62991 1.63179 1.629 1.61974 1.60754 1.59759 1.59378
1.59275 1.58875 1.57681 1.55774 1.53485 1.51148 1.4913 1.47812 1.47408
1.47604 1.47981 1.48299 1.48698 1.49367 1.50443 1.51997 1.54085 1.56573
1.59102 1.61307 1.6308 1.64677 1.66377 1.68349 1.70472 1.72576 1.74505
1.76167 1.77497 1.7843 1.78927 1.7898 1.78585 1.77765 1.76672 1.75492
1.74403 1.73527 1.72943 1.72728 1.72948 1.73649 1.7488 1.76635 1.78687
1.80752 1.82537 1.83602 1.83358 1.81208 1.76869 1.71192 1.65284 1.60017
1.55097 1.49853 1.43974 1.38577 1.35105 1.33848 1.3365 1.33458 1.33396
1.34031 1.35553 1.37534 1.39494 1.40983 1.41574 1.32726 1.1744 1.11219
1.14406 1.18164 1.1883 1.18503 1.18761 1.19199 1.19281 1.19438 1.2037
1.21949 1.23417 1.24288 1.24659 1.24613 1.23731 1.21439 1.18086 1.14935
1.12631 1.10642 1.08566 1.06733 1.0544 1.04433 1.03453 1.02626 1.0205
1.01492 1.00779 1.00065 0.995468 0.994046 0.99599 0.997124 0.996506 0.997942
1.00048 0.996642 0.986917 0.979849 0.974205 0.962526 0.949476 0.944353 0.944316
0.944115 0.944587 0.946815 0.950041 0.953502 0.956729 0.959903 0.963581 0.967243
0.970062 0.972997 0.977298 0.982533 0.987743 0.991794 0.994174 0.995951 0.998474
1.00317 1.0108 1.02113 1.03227 1.04024 1.04798 1.06791 1.10107 1.12948
1.14178 1.14776 1.15828 1.17373 1.19168 1.21072 1.22998 1.24819 1.26354
1.27454 1.28119 1.28397 1.28407 1.28368 1.28428 1.28434 1.28183 1.27813
1.27739 1.28288 1.29439 1.31072 1.32762 1.33825 1.33804 1.33244 1.32936
1.33147 1.33531 1.33813 1.34436 1.36131 1.39264 1.43459 1.4826 1.53371
1.58694 1.64138 1.69629 1.75113 1.80537 1.85854 1.91039 1.96071 2.00932
2.05668 2.10529 2.15803 2.2178 2.28614 2.35616 2.41772 2.46067 2.47486
2.4549 2.40847 2.34548 2.27582 2.20936 2.15154 2.10002 2.05168 2.00342
1.95283 1.90025 1.84663 1.79291 1.7398 1.68749 1.63609 1.58563 1.53527
1.48377 1.43003 1.37579 1.32506 1.28095 1.23934 1.19284 1.13936 1.08676
1.04283 1.01018 0.990035 0.983708 0.99168 1.00833 1.02577 1.03733 1.03906
1.03723 1.03711 1.03584 1.03192 1.02949 1.03533 1.06301 1.11683 1.1719
1.20765 1.22552 1.23038 1.22825 1.22524 1.21965 1.20205 1.16812 1.13335
1.11382 1.10694 1.10529 1.10648 1.11052 1.11603 1.12053 1.12351 1.12747
1.13394 1.14113 1.14738 1.15264 1.15701 1.16023 1.16199 1.16198 1.15994
1.15633 1.15285 1.15125 1.15302 1.15832 1.16293 1.16247 1.16128 1.16858
1.18246 1.19007 1.18614 1.17774 1.17145 1.16736 1.16404 1.16255 1.16558
1.17358 1.18491 1.19646 1.20203 1.1968 1.18611 1.17852 1.17371 1.1634
1.14411 1.1216 1.10202 1.08928 1.08633 1.09336 1.10869 1.12711 1.14327
1.15576 1.16447 1.16778 1.16315 1.15031 1.13235 1.1124 1.09305 1.07676
1.06559 1.0611 1.06253 1.06783 1.07244 1.07218 1.072 1.07922 1.09046
1.09875 1.10714 1.12271 1.14266 1.15825 1.16607 1.16779 1.16385 1.15225
1.1332 1.11504 1.10552 1.0964 1.07365 1.04014 1.01433 1.00134 0.99087
0.980179 0.973682 0.970501 0.967268 0.961639 0.951662 0.934701 0.912929 0.90049
0.902246 0.90451 0.903631 0.907849 0.913224 0.913808 0.912136 0.911877 0.915657
0.92874 0.954447 0.975749 0.980618 0.991249 1.02374 1.06148 1.08889 1.10617
1.11477 1.11325 1.10082 1.08053 1.05662 1.0349 1.0206 1.01472 1.01573
1.01595 1.008 1.00308 1.01148 1.00411 0.955145 0.893488 0.851647 0.832744
0.82918 0.827794 0.828061 0.831245 0.826592 0.809324 0.787099 0.775614 0.777054
0.775458 0.769723 0.763016 0.759027 0.763798 0.777498 0.791533 0.80692 0.825191
0.843875 0.856092 0.853809 0.832211 0.811239 0.809689 0.814907 0.834372 0.885115
0.926036 0.939733 0.948066 0.963399 0.982505 0.992455 0.985078 0.980855 0.997748
1.02787 1.06333 1.11472 1.1766 1.2073 1.44447 1.49899 1.53181 1.50718
1.44374 1.37564 1.32192 1.27395 1.22198 1.16801 1.11835 1.07479 1.03665
1.00818 0.996 0.997213 1.00409 1.01128 1.01541 1.02097 1.03459 1.05152
1.06427 1.08086 1.11423 1.15614 1.18679 1.20085 1.20888 1.21732 1.21993
1.21154 1.20539 1.22043 1.25392 1.28379 1.29483 1.2954 1.29769 1.30369
1.30752 1.3052 1.29917 1.29293 1.28761 1.28248 1.27668 1.2692 1.25926
1.24898 1.24215 1.2379 1.22753 1.2046 1.17704 1.15562 1.13603 1.10577
1.06785 1.0387 1.02281 1.01274 1.00482 0.998983 0.995492 0.994669 0.995933
0.99838 1.00211 1.00741 1.01351 1.01931 1.02403 1.02729 1.02995 1.03309
1.03739 1.0433 1.05066 1.05872 1.06489 1.0668 1.06654 1.06715 1.06692
1.06245 1.05147 1.03298 1.01301 0.999626 0.992166 0.987312 0.983949 0.983741
0.995687 1.02618 1.07054 1.12261 1.17731 1.23037 1.28138 1.33129 1.38097
1.43111 1.4824 1.53497 1.58824 1.64158 1.69461 1.74736 1.79988 1.85216
1.90393 1.95482 2.00445 2.05297 2.10254 2.15584 2.21556 2.28326 2.35271
2.41428 2.45836 2.47532 2.45773 2.41142 2.34719 2.27585 2.20814 2.1499
2.09871 2.05133 2.00452 1.95572 1.90493 1.85281 1.8 1.74707 1.69436
1.64212 1.59059 1.53936 1.48759 1.43451 1.38058 1.32748 1.27664 1.22677
1.17526 1.12119 1.06782 1.01957 0.983348 0.965314 0.961345 0.96344 0.965853
0.965963 0.966768 0.968279 0.962719 0.948854 0.934829 0.926614 0.926381 0.929448
0.929291 0.930101 0.935035 0.937612 0.936741 0.938952 0.942238 0.936619 0.926995
0.923644 0.925205 0.927765 0.928977 0.928606 0.92866 0.9288 0.927313 0.92857
0.936214 0.941014 0.939571 0.94333 0.955571 0.967324 0.976089 0.986169 0.997891
1.00943 1.0182 1.02176 1.02032 1.01516 1.00768 0.999154 0.990104 0.980789
0.971194 0.961274 0.951099 0.940822 0.930713 0.921085 0.912162 0.903057 0.892521
0.881379 0.8703 0.85818 0.846149 0.837737 0.835434 0.839719 0.84803 0.855477
0.856884 0.852673 0.844736 0.835428 0.828846 0.829008 0.833871 0.838638 0.838724
0.841161 0.849846 0.854447 0.853298 0.853128 0.852496 0.845819 0.827859 0.806346
0.792596 0.785455 0.780406 0.774002 0.770766 0.77124 0.770279 0.773212 0.779628
0.781513 0.78898 0.799053 0.792398 0.781778 0.779411 0.786192 0.792711 0.794665
0.795145 0.793809 0.787932 0.773891 0.753458 0.732183 0.717963 0.713623 0.710132
0.689039 0.645938 0.616797 0.613474 0.612101 0.619734 0.645583 0.6556 0.639971
0.624789 0.632952 0.671416 0.690956 0.705708 0.749279 0.7765 0.771765 0.743987
0.716608 0.702803 0.689118 0.663347 0.634211 0.618215 0.60867 0.612566 0.625225
0.618854 0.624793 0.596775 0.559669 0.544256 0.546032 0.561593 0.56326 0.536498
0.500077 0.500501 0.49842 0.509543 0.56963 0.607236 0.624098 0.630121 0.601731
0.588986 0.564613 0.53468 0.540566 0.536436 0.534139 0.5361 0.564117 0.61868
0.66397 0.675167 0.663753 0.658362 0.670724 0.691908 0.704806 0.707049 0.70822
0.720297 0.745985 0.77067 0.772939 0.741922 0.708705 0.692702 0.690719 0.693305
0.684924 0.657836 0.616999 0.57814 0.576633 0.551953 0.565015 0.59725 0.560637
0.557786 0.611439 0.623507 0.640538 0.642079 0.631847 0.61061 0.563918 0.509326
0.499218 0.499017 0.519618 0.540197 0.504722 0.500012 0.495544 0.553177 0.567984
0.595942 0.651421 0.668633 0.64895 0.636177 0.63149 0.632276 0.624661 0.642312
0.701222 0.747213 0.758858 0.802264 0.850398 1.92774 1.95843 1.99412 2.02215
2.02986 2.00804 1.96464 1.91292 1.86611 1.83257 1.81099 1.79892 1.79388
1.79309 1.79367 1.79276 1.78928 1.78533 1.78335 1.78514 1.78973 1.79543
1.80056 1.80426 1.80654 1.80749 1.80724 1.80612 1.80457 1.80297 1.80155
1.80032 1.79927 1.79837 1.79741 1.79615 1.79434 1.79173 1.78807 1.78309
1.77686 1.77021 1.7641 1.75925 1.75451 1.74784 1.73726 1.72306 1.70832
1.69629 1.68895 1.68523 1.68356 1.68245 1.68062 1.67685 1.67049 1.6645
1.66326 1.67074 1.6838 1.69337 1.69023 1.67004 1.63598 1.59189 1.54129
1.48716 1.43239 1.3792 1.32915 1.28416 1.24798 1.22454 1.21118 1.19958
1.187 1.18091 1.17281 1.14619 1.09942 1.04652 1.00793 0.989174 0.986594
0.991711 0.996563 1.00683 1.0281 1.04489 1.04144 1.02861 1.01977 1.00466
0.969889 0.913083 0.852371 0.844908 0.868875 0.851283 0.81684 0.80535 0.824891
0.850185 0.858232 0.873296 0.90295 0.929701 0.946997 0.955479 0.959189 0.962429
0.966646 0.971477 0.973961 0.970909 0.959415 0.939991 0.916871 0.894906 0.878363
0.867668 0.861061 0.855071 0.848653 0.842311 0.835789 0.831479 0.834047 0.83615
0.832363 0.833982 0.842428 0.850454 0.855303 0.857057 0.856629 0.838755 0.795586
0.769813 0.763624 0.754387 0.755612 0.769384 0.785692 0.792401 0.793118 0.796667
0.802785 0.809355 0.814051 0.815452 0.819527 0.837762 0.874496 0.926653 0.98192
1.03393 1.08481 1.13609 1.18781 1.23986 1.29206 1.34421 1.39628 1.44838
1.50061 1.55284 1.60485 1.65644 1.70785 1.7596 1.81224 1.86584 1.91926
1.97117 2.02028 2.06707 2.11486 2.1672 2.22767 2.29738 2.36775 2.42779
2.46649 2.47303 2.44494 2.39199 2.32496 2.25462 2.19121 2.13729 2.08933
2.04364 1.99653 1.94568 1.89203 1.83701 1.78203 1.72809 1.67563 1.62504
1.57638 1.52815 1.47843 1.42557 1.37061 1.31635 1.26478 1.21435 1.16263
1.10921 1.05632 1.00449 0.949844 0.894078 0.854404 0.838745 0.834913 0.834532
0.83399 0.833365 0.832755 0.831442 0.826791 0.81847 0.812955 0.808541 0.799869
0.78897 0.793273 0.830031 0.855121 0.851669 0.853424 0.863383 0.869817 0.874569
0.880714 0.886957 0.878248 0.847432 0.822067 0.804073 0.761576 0.706704 0.671615
0.676203 0.672757 0.664836 0.679474 0.70001 0.726945 0.752674 0.772822 0.796364
0.812883 0.81666 0.818463 0.829807 0.854313 0.881378 0.902018 0.912129 0.91569
0.918358 0.925658 0.934166 0.935462 0.931874 0.929587 0.92898 0.928764 0.928119
0.929168 0.936199 0.94621 0.950638 0.945422 0.930367 0.91154 0.895455 0.885395
0.87707 0.859553 0.83914 0.830454 0.825851 0.823302 0.830455 0.84102 0.848018
0.858109 0.867452 0.863677 0.849815 0.834964 0.829503 0.828632 0.824514 0.821517
0.819969 0.818249 0.839814 0.886151 0.911745 0.915407 0.916093 0.918383 0.921358
0.924363 0.92674 0.928149 0.932331 0.94405 0.961544 0.979789 0.987096 0.978955
0.967643 0.960239 0.956136 0.956927 0.967338 0.980268 0.980098 0.959769 0.921006
0.884625 0.86935 0.864045 0.859215 0.860171 0.886479 0.946349 0.975668 0.949251
0.935267 0.949042 0.937367 0.906377 0.902545 0.926664 0.957323 0.973146 0.968516
0.959237 0.951962 0.945725 0.927024 0.880737 0.826781 0.787013 0.756154 0.743167
0.761624 0.777873 0.785042 0.795266 0.798865 0.799635 0.810426 0.825008 0.837778
0.845085 0.834794 0.803337 0.770933 0.756577 0.75927 0.740382 0.723192 0.721751
0.702288 0.697293 0.72994 0.780584 0.801983 0.811085 0.841118 0.858576 0.857618
0.861089 0.885455 0.922962 0.946689 0.954123 0.951897 0.942203 0.927809 0.916252
0.910138 0.904091 0.893576 0.874555 0.840857 0.79394 0.756554 0.737883 0.724913
0.682172 0.632398 0.617241 0.635134 0.683678 0.732522 0.750872 0.736778 0.724303
0.738482 0.771388 0.783314 0.783104 0.785513 0.787706 0.766808 0.731528 0.729969
0.739745 0.739592 0.740329 0.735495 0.704473 0.650675 0.645461 0.686646 0.743207
0.793956 0.821364 0.826661 0.8205 0.817125 0.821518 0.826055 0.808536 0.77437
0.757052 0.773264 0.824138 0.893527 0.917218 0.862756 0.807442 0.777906 0.734903
0.675782 0.638929 1.24967 1.41034 1.59449 1.73496 1.80684 1.83663 1.85394
1.88058 1.9115 1.9359 1.9435 1.93259 1.90853 1.8769 1.84263 1.80679
1.76903 1.72901 1.68796 1.65009 1.61997 1.60037 1.58648 1.57143 1.5498
1.52909 1.5236 1.54474 1.58088 1.60951 1.61105 1.59132 1.56914 1.56139
1.5674 1.57752 1.58314 1.5837 1.58205 1.58052 1.57729 1.56866 1.55153
1.52848 1.50538 1.4875 1.47509 1.4661 1.45864 1.45204 1.44626 1.44171
1.44013 1.44345 1.45251 1.46606 1.48265 1.50013 1.51558 1.52617 1.53158
1.53375 1.53456 1.53469 1.5343 1.53363 1.5343 1.53893 1.54969 1.56396
1.57665 1.5831 1.58344 1.58063 1.57747 1.57484 1.57277 1.57125 1.57041
1.57044 1.57145 1.57307 1.57465 1.57561 1.57547 1.57387 1.57041 1.56474
1.55651 1.54575 1.53624 1.53402 1.5442 1.56333 1.58345 1.59721 1.60213
1.5981 1.58506 1.56367 1.53505 1.50039 1.46223 1.42459 1.39126 1.36167
1.33186 1.29896 1.26396 1.22871 1.19716 1.17569 1.16832 1.16655 1.15983
1.15235 1.15458 1.16478 1.17205 1.17119 1.17132 1.18061 1.19306 1.20013
1.20209 1.20251 1.20311 1.2033 1.2023 1.19923 1.19366 1.18844 1.1873
1.18851 1.1872 1.18285 1.18179 1.18833 1.19689 1.20034 1.19929 1.19849
1.2004 1.20472 1.21029 1.21422 1.21372 1.20905 1.20175 1.1912 1.17363
1.14645 1.11058 1.06749 1.01877 0.966353 0.915174 0.870132 0.814525 0.741736
0.74829 0.802733
