# vtk DataFile Version 3.0
vtk output
ASCII
DATASET POLYDATA
POINTS 1525 float
0 0 0 0.315159 -0.00644712 -0.0592557 0.611326 -0.018357 -0.0974261 
0.869509 -0.0411924 -0.0934261 1.07072 -0.0804162 -0.0261703 1.19974 -0.139897 0.122009 
1.27179 -0.210669 0.341272 1.31677 -0.277578 0.608511 1.36468 -0.325429 0.900534 
1.44529 -0.33924 1.19417 1.57398 -0.317757 1.46801 1.74323 -0.281611 1.70338 
1.94346 -0.253388 1.88188 2.1651 -0.255673 1.98512 2.39886 -0.308732 1.99735 
2.63896 -0.404396 1.93572 2.88199 -0.515433 1.8394 3.12456 -0.61426 1.74795 
3.36331 -0.673292 1.70095 3.59561 -0.670403 1.73019 3.82292 -0.613782 1.82426 
4.04817 -0.522076 1.9568 4.27426 -0.413945 2.1015 4.50408 -0.307974 2.23208 
4.73931 -0.215417 2.33249 4.9794 -0.133871 2.4056 5.22354 -0.059444 2.45634 
5.47092 0.0117542 2.48965 5.72074 0.0834413 2.51034 5.97244 0.156311 2.52097 
6.22562 0.228487 2.52221 6.47992 0.298012 2.51466 6.73496 0.36293 2.49892 
6.99043 0.422051 2.47629 7.24624 0.476784 2.45042 7.50237 0.529087 2.42545 
7.75878 0.580919 2.40554 8.01546 0.634061 2.39451 8.27249 0.688003 2.39197 
8.53004 0.740636 2.3946 8.78828 0.78982 2.39902 9.04736 0.833588 2.40203 
9.30721 0.87215 2.40276 9.56756 0.907223 2.40196 9.82817 0.94055 2.40039 
10.0692 0.84881 2.44816 10.3069 0.755197 2.50427 10.5379 0.657837 2.57706 
10.7594 0.554584 2.67284 10.9717 0.440762 2.77913 11.177 0.310322 2.87322 
11.3771 0.157495 2.93429 11.567 -0.0195612 2.96759 11.7371 -0.219898 2.99694 
11.8764 -0.442439 3.04036 11.9678 -0.685752 3.08403 11.993 -0.94804 3.10442 
11.9803 -1.21669 3.10056 12.0204 -1.46449 3.10199 12.1717 -1.66982 3.13255 
12.3876 -1.83007 3.19344 12.6109 -1.95018 3.27882 12.8293 -2.05665 3.36703 
13.045 -2.18114 3.43258 13.2632 -2.32132 3.47313 13.4915 -2.44528 3.50657 
13.7333 -2.53516 3.54512 13.9818 -2.60793 3.58634 14.2291 -2.68417 3.62602 
14.4735 -2.76865 3.66362 14.7168 -2.85547 3.70108 14.9609 -2.93993 3.73952 
15.206 -3.02251 3.77694 15.4519 -3.10489 3.81067 15.6982 -3.18747 3.84263 
15.9432 -3.2687 3.88179 16.1857 -3.34699 3.93699 16.4257 -3.42256 4.00728 
16.6645 -3.49688 4.08465 16.9035 -3.57112 4.16128 17.1444 -3.64362 4.23224 
17.3889 -3.71147 4.29388 17.6385 -3.77221 4.34293 17.8922 -3.82614 4.37809 
18.1484 -3.87448 4.39874 18.4058 -3.91835 4.40514 18.6638 -3.95831 4.40304 
18.9228 -3.99474 4.40018 19.1826 -4.02826 4.40343 19.4423 -4.06276 4.40935 
19.7 -4.10421 4.40791 19.954 -4.15845 4.38938 20.204 -4.22675 4.35512 
20.4513 -4.30525 4.31905 20.6974 -4.38985 4.2957 20.9431 -4.47758 4.29127 
21.1886 -4.56772 4.29634 21.4336 -4.65978 4.29978 21.6781 -4.75319 4.29584 
21.9219 -4.84723 4.29262 22.165 -4.94112 4.30043 22.4076 -5.03365 4.32577 
22.6512 -5.12187 4.36159 22.8976 -5.2025 4.3978 23.148 -5.27316 4.42706 
23.4003 -5.33603 4.45585 23.6514 -5.39477 4.495 23.8989 -5.45288 4.55257 
24.1439 -5.51293 4.62133 24.3884 -5.57718 4.6889 24.6345 -5.64762 4.74381 
24.882 -5.72403 4.78121 25.1301 -5.80528 4.79911 25.3778 -5.89077 4.79799 
25.6228 -5.98273 4.79231 25.8625 -6.08437 4.80134 26.0951 -6.19771 4.83564 
26.3226 -6.3208 4.87751 26.5475 -6.45094 4.90362 26.7713 -6.58581 4.90414 
26.9935 -6.72395 4.89786 27.2134 -6.86405 4.90683 27.4299 -7.00687 4.93828 
27.6412 -7.15597 4.97889 27.8459 -7.31498 5.01428 28.0442 -7.48308 5.04203 
28.2391 -7.65434 5.07354 28.4333 -7.82263 5.1208 28.6267 -7.98748 5.18488 
28.8153 -8.15619 5.25177 28.9946 -8.33665 5.30637 29.1623 -8.53293 5.34076 
29.3219 -8.73906 5.36579 29.4782 -8.94752 5.39535 29.6351 -9.1516 5.44095 
29.7952 -9.34971 5.49991 29.9602 -9.54219 5.56428 30.1317 -9.72936 5.62628 
30.3097 -9.91179 5.68338 30.492 -10.0904 5.73948 30.6765 -10.2659 5.79885 
30.8613 -10.4396 5.86376 31.0463 -10.6129 5.92807 31.2321 -10.7876 5.98344 
31.419 -10.9655 6.0224 31.6062 -11.1462 6.04935 31.7918 -11.3283 6.0771 
31.9742 -11.5101 6.11843 32.153 -11.6913 6.17634 32.3303 -11.8726 6.24029 
32.5081 -12.0554 6.29875 32.6878 -12.2403 6.34257 32.8689 -12.4269 6.37273 
33.0498 -12.6147 6.3929 33.2293 -12.8028 6.40658 33.4082 -12.9909 6.41417 
33.5892 -13.1789 6.41286 33.7752 -13.3666 6.3997 33.9667 -13.5524 6.36981 
34.1559 -13.7285 6.31123 34.3329 -13.8857 6.21042 34.491 -14.0186 6.05952 
34.6379 -14.1403 5.87944 34.786 -14.2698 5.70022 34.9439 -14.4225 5.54884 
35.1052 -14.5998 5.4399 35.2599 -14.7993 5.38449 35.4039 -15.0162 5.37817 
35.5409 -15.2425 5.39708 35.6741 -15.4704 5.42076 35.8017 -15.6955 5.45752 
35.9198 -15.9146 5.52642 36.0299 -16.1258 5.63207 36.1419 -16.3296 5.75559 
36.2656 -16.5266 5.87712 36.4016 -16.7185 5.99085 36.5438 -16.9079 6.10059 
36.5425 -17.1731 6.13337 36.5722 -17.4247 6.1799 36.6605 -17.6505 6.25239 
36.7944 -17.8555 6.34608 36.9363 -18.0554 6.44554 37.0697 -18.259 6.53713 
37.2029 -18.4675 6.6094 37.3418 -18.6809 6.65777 37.483 -18.8967 6.69541 
37.6224 -19.1122 6.73609 37.7614 -19.3267 6.7805 37.9035 -19.54 6.82473 
38.0544 -19.7476 6.86728 38.2215 -19.9415 6.90871 38.4083 -20.1172 6.94984 
38.6091 -20.2775 6.99186 38.8178 -20.4261 7.03557 39.0328 -20.5651 7.07857 
39.2547 -20.6956 7.11737 39.4803 -20.8194 7.15758 39.7022 -20.9382 7.21524 
39.9181 -21.0511 7.29987 40.1369 -21.1513 7.40618 40.3614 -21.242 7.51954 
40.5696 -21.3638 7.59967 40.7411 -21.5508 7.6158 40.8856 -21.7753 7.60083 
41.0186 -22.0009 7.59526 41.1468 -22.2243 7.60064 41.274 -22.4499 7.60699 
41.4008 -22.6774 7.5995 41.524 -22.9048 7.56327 41.6287 -23.1298 7.4872 
41.705 -23.3538 7.37783 41.7627 -23.5892 7.28702 41.813 -23.8401 7.23914 
41.8628 -24.0863 7.17744 41.9154 -24.3188 7.07467 41.9682 -24.5542 6.97577 
42.0222 -24.8019 6.9159 42.0851 -25.054 6.8989 42.1633 -25.3023 6.90448 
42.2598 -25.5409 6.88487 42.3753 -25.7672 6.82753 42.5083 -25.9819 6.75791 
42.6547 -26.1898 6.70638 42.8084 -26.3982 6.69885 42.9633 -26.6069 6.70102 
43.1149 -26.8125 6.66144 43.2644 -27.0159 6.59245 43.414 -27.2195 6.52622 
43.5647 -27.4272 6.49801 43.7151 -27.64 6.50593 43.8608 -27.8517 6.48053 
44.0004 -28.0631 6.41844 44.1353 -28.2823 6.39593 44.2639 -28.5089 6.40419 
44.3824 -28.7358 6.36858 44.4944 -28.9633 6.30834 44.6066 -29.1952 6.28819 
44.7217 -29.4292 6.29878 44.8403 -29.6607 6.30349 44.9621 -29.8897 6.29981 
45.0866 -30.1171 6.2963 45.2142 -30.3438 6.30063 45.3433 -30.5704 6.31059 
45.4649 -30.7978 6.29391 45.5737 -31.0276 6.23833 45.6765 -31.2619 6.19682 
45.777 -31.5018 6.19955 45.8666 -31.745 6.19648 45.9415 -31.9891 6.15217 
46.0131 -32.2332 6.09357 46.0907 -32.4766 6.04553 46.172 -32.7192 6.00256 
46.2532 -32.9612 5.95649 46.3343 -33.2038 5.91102 46.4164 -33.4477 5.87154 
46.4988 -33.6901 5.82764 46.5804 -33.9265 5.76159 46.6609 -34.1577 5.67502 
46.7407 -34.3898 5.58779 46.8194 -34.6255 5.51016 46.8939 -34.8593 5.42626 
46.9614 -35.0852 5.31904 47.024 -35.3064 5.1974 47.0871 -35.5314 5.08421 
47.1532 -35.7652 4.99369 47.2184 -36.0056 4.91794 47.2785 -36.2487 4.84562 
47.3334 -36.4895 4.76495 47.3856 -36.7223 4.66413 47.4363 -36.9473 4.54412 
47.4845 -37.1735 4.42585 47.5292 -37.4099 4.32929 47.5663 -37.6554 4.2516 
47.5907 -37.9039 4.1787 47.6021 -38.1518 4.10208 47.6086 -38.3991 4.02316 
47.6181 -38.6465 3.9442 47.6276 -38.894 3.86584 47.6278 -39.1414 3.78779 
47.6136 -39.3885 3.71019 47.5914 -39.6361 3.63425 47.5686 -39.8847 3.56112 
47.5483 -40.1331 3.4874 47.529 -40.3785 3.40566 47.5099 -40.6187 3.30993 
47.4915 -40.8543 3.20194 47.4752 -41.0867 3.08571 47.4628 -41.3166 2.96393 
47.4576 -41.5426 2.83564 47.4632 -41.7629 2.69926 47.4816 -41.9768 2.55401 
47.5085 -42.1859 2.40229 47.5378 -42.3929 2.2473 47.5638 -42.6002 2.09207 
47.5845 -42.8087 1.93807 47.5995 -43.0187 1.78585 47.6088 -43.23 1.63593 
47.613 -43.4429 1.48881 47.62 -43.6574 1.34477 47.6414 -43.8738 1.204 
47.6886 -44.0924 1.06666 47.7723 -44.3132 0.932925 47.8838 -44.5345 0.80266 
47.9951 -44.7526 0.675456 48.0775 -44.9639 0.550889 48.1022 -45.1645 0.428533 
48.0449 -45.3515 0.307866 47.9175 -45.528 0.187549 47.7498 -45.7001 0.0658427 
47.5714 -45.8737 -0.0589932 47.4121 -46.0551 -0.1887 47.2963 -46.249 -0.32449 
47.2204 -46.4542 -0.464835 47.1714 -46.6672 -0.60732 47.1366 -46.8847 -0.74953 
47.1038 -47.1034 -0.889106 47.0677 -47.3227 -1.02444 47.0283 -47.5436 -1.15444 
46.9854 -47.7671 -1.27801 46.9391 -47.994 -1.39464 46.8909 -48.2227 -1.50781 
46.8429 -48.4508 -1.62269 46.7973 -48.6759 -1.74436 46.7555 -48.8981 -1.87274 
46.7179 -49.1213 -2.00012 46.685 -49.3498 -2.11824 46.6567 -49.585 -2.22427 
46.6328 -49.8217 -2.32877 46.6127 -50.0538 -2.44405 46.5955 -50.2814 -2.56899 
46.5801 -50.5135 -2.68363 46.5645 -50.7573 -2.77201 46.5437 -51.0033 -2.85393 
46.5112 -51.2358 -2.96239 46.4632 -51.4501 -3.10252 46.398 -51.6519 -3.25422 
46.3203 -51.8479 -3.40538 46.2448 -52.0455 -3.55697 46.1831 -52.2405 -3.71795 
46.1412 -52.414 -3.90535 46.1129 -52.5749 -4.10805 46.082 -52.7559 -4.29093 
46.0514 -52.9539 -4.45678 46.0393 -53.1351 -4.6409 46.0385 -53.301 -4.84166 
46.0306 -53.4709 -5.03884 46.0152 -53.6533 -5.22317 46.0012 -53.8501 -5.39199 
45.9824 -54.0575 -5.54753 45.9418 -54.2664 -5.69646 45.8882 -54.4694 -5.84953 
45.8467 -54.6615 -6.01841 45.8222 -54.8496 -6.19619 45.8076 -55.0473 -6.36519 
45.7963 -55.2523 -6.52573 45.7833 -55.4416 -6.7017 45.7646 -55.6013 -6.90738 
45.7399 -55.7588 -7.11345 45.7098 -55.9494 -7.28202 45.6756 -56.1688 -7.41919 
45.6392 -56.3759 -7.57142 45.6037 -56.557 -7.75434 45.5733 -56.7315 -7.94572 
45.5504 -56.9132 -8.13006 45.5337 -57.0999 -8.30942 45.522 -57.2882 -8.48775 
45.5161 -57.4748 -8.66839 45.5166 -57.6583 -8.8529 45.5212 -57.8466 -9.03169 
45.5264 -58.0504 -9.19199 45.5309 -58.2617 -9.34343 45.5353 -58.4588 -9.51118 
45.5411 -58.6424 -9.69509 45.5505 -58.8274 -9.87809 45.5631 -59.0162 -10.0564 
45.5753 -59.1957 -10.2426 45.5858 -59.3601 -10.4426 45.598 -59.5206 -10.6471 
45.615 -59.69 -10.8449 45.633 -59.8761 -11.0255 45.6449 -60.0835 -11.1804 
45.6499 -60.3021 -11.3212 45.6529 -60.5098 -11.4766 45.6562 -60.7037 -11.6499 
45.6592 -60.9025 -11.8164 45.6606 -61.1186 -11.9595 45.6585 -61.3445 -12.0894 
45.6518 -61.5696 -12.2203 45.6458 -61.7872 -12.3614 45.647 -61.9926 -12.5191 
[...]
POINT_DATA 1525
SCALARS radiiScalars double
LOOKUP_TABLE default
2.22769 2.22746 2.22693 2.22634 2.22596 2.22616 2.22853 2.23522 2.24838 
2.27012 2.30047 2.33607 2.37327 2.40842 2.43807 2.4613 2.47884 2.49148 
2.50001 2.50511 2.50706 2.50595 2.50189 2.495 2.48545 2.47357 2.45969 
2.44415 2.42733 2.41009 2.39374 2.37961 2.36901 2.36217 2.35563 2.34512 
2.3264 2.29546 2.25159 2.19638 2.13146 2.05904 1.98883 1.93572 1.91469 
1.88972 1.83012 1.75884 1.69684 1.6465 1.60012 1.55038 1.49664 1.44292 
1.3922 1.34133 1.28538 1.22817 1.18533 1.16775 1.17045 1.1854 1.20381 
1.21717 1.22764 1.24662 1.27921 1.31516 1.34289 1.36085 1.37426 1.38731 
1.39982 1.4106 1.41954 1.42813 1.43788 1.44888 1.46014 1.47104 1.48379 
1.5019 1.52794 1.55931 1.59165 1.62094 1.64541 1.66411 1.67622 1.68233 
1.68392 1.68247 1.67856 1.67175 1.66158 1.64873 1.63611 1.62686 1.62295 
1.62325 1.62618 1.62991 1.63179 1.629 1.61974 1.60754 1.59759 1.59378 
1.59275 1.58875 1.57681 1.55774 1.53485 1.51148 1.4913 1.47812 1.47408 
1.47604 1.47981 1.48299 1.48698 1.49367 1.50443 1.51997 1.54085 1.56573 
1.59102 1.61307 1.6308 1.64677 1.66377 1.68349 1.70472 1.72576 1.74505 
1.76167 1.77497 1.7843 1.78927 1.7898 1.78585 1.77765 1.76672 1.75492 
1.74403 1.73527 1.72943 1.72728 1.72948 1.73649 1.7488 1.76635 1.78687 
1.80752 1.82537 1.83602 1.83358 1.81208 1.76869 1.71192 1.65284 1.60017 
1.55097 1.49853 1.43974 1.38577 1.35105 1.33848 1.3365 1.33458 1.33396 
1.34031 1.35553 1.37534 1.39494 1.40983 1.41574 1.32768 1.17512 1.1122 
1.14352 1.18136 1.18834 1.18504 1.18751 1.19191 1.19281 1.19425 1.20324 
1.21889 1.2337 1.24263 1.24651 1.2463 1.23804 1.21597 1.18279 1.15093 
1.12756 1.10772 1.08702 1.06843 1.0552 1.04507 1.03527 1.02682 1.02093 
1.01546 1.00846 1.00125 0.995824 0.993983 0.995759 0.997142 0.996543 0.997614 
1.00038 0.997531 0.988063 0.980455 0.97511 0.964292 0.950824 0.94458 0.944285 
0.944147 0.944411 0.946416 0.949548 0.952998 0.956264 0.959395 0.962981 0.96671 
0.969642 0.97244 0.976492 0.981619 0.986896 0.991218 0.993832 0.995616 0.997891 
1.00207 1.00914 1.01897 1.03023 1.03903 1.04586 1.06237 1.094 1.12491 
1.14015 1.14636 1.1555 1.17005 1.18756 1.20638 1.22562 1.24418 1.26031 
1.27235 1.27997 1.28362 1.28418 1.2837 1.28409 1.2845 1.28274 1.27898 
1.27706 1.2808 1.29079 1.30599 1.32335 1.33635 1.33898 1.33409 1.3296 
1.33052 1.33424 1.33728 1.34173 1.35473 1.38191 1.42104 1.46754 1.51769 
1.57021 1.62421 1.67889 1.73365 1.78799 1.84139 1.89355 1.94426 1.99332 
2.04076 2.08849 2.13937 2.19624 2.2617 2.33209 2.3976 2.44817 2.47372 
2.46568 2.42781 2.36987 2.30171 2.23313 2.17231 2.11894 2.0699 2.02211 
1.97265 1.92088 1.8677 1.81405 1.76081 1.70831 1.65668 1.60601 1.5559 
1.50516 1.45255 1.3982 1.34565 1.29884 1.25719 1.21378 1.1628 1.10887 
1.06067 1.02304 0.99731 0.984727 0.986555 1.00029 1.01822 1.03319 1.03925 
1.03795 1.03707 1.03682 1.03388 1.03014 1.03075 1.04611 1.08898 1.147 
1.19279 1.21872 1.22926 1.22977 1.22658 1.22334 1.21301 1.18664 1.14988 
1.12172 1.10939 1.10579 1.1055 1.10807 1.11311 1.11843 1.12198 1.12507 
1.13023 1.13731 1.14413 1.14989 1.15474 1.15862 1.16122 1.16222 1.16135 
1.15846 1.15469 1.15184 1.15152 1.15504 1.16066 1.16341 1.1615 1.16287 
1.17424 1.18708 1.18953 1.18281 1.17484 1.16964 1.16599 1.16308 1.16307 
1.16818 1.17765 1.18962 1.19964 1.20127 1.19295 1.18256 1.17684 1.17101 
1.15718 1.136 1.11401 1.09652 1.08705 1.08769 1.09795 1.11499 1.13304 
1.14791 1.15914 1.1663 1.16725 1.15971 1.14487 1.12602 1.10604 1.08746 
1.07261 1.06346 1.06099 1.06389 1.06955 1.07287 1.07172 1.07323 1.08244 
1.09329 1.10079 1.11064 1.12825 1.14777 1.16112 1.16707 1.16735 1.16159 
1.14771 1.12796 1.11173 1.10374 1.0924 1.06558 1.03236 1.01033 0.998957 
0.988159 0.97817 0.972771 0.96987 0.966263 0.959853 0.948598 0.929927 0.908908 
0.900058 0.903169 0.904277 0.903993 0.90912 0.913728 0.913521 0.911893 0.912192 
0.917203 0.932764 0.95939 0.97747 0.981277 0.995588 1.03047 1.06695 1.09241 
1.10819 1.11526 1.11196 1.09809 1.07698 1.05307 1.03226 1.01923 1.01456 
1.01602 1.0154 1.00671 1.00373 1.01222 1.0002 0.947402 0.887238 0.848295 
0.831829 0.829095 0.827643 0.828388 0.831337 0.825363 0.807169 0.785295 0.775464 
0.777162 0.775082 0.769158 0.762528 0.759 0.764627 0.778557 0.792512 0.808059 
0.826428 0.844886 0.856438 0.853087 0.830824 0.810725 0.809914 0.815214 0.836011 
0.887212 0.926895 0.939968 0.948432 0.963912 0.982933 0.992449 0.984879 0.98096 
0.998105 1.02823 1.06367 1.11507 1.17675 1.2073 1.44447 1.49899 1.53181 
1.50718 1.44374 1.37564 1.32192 1.27395 1.22198 1.16801 1.11835 1.07479 
1.03665 1.00818 0.996 0.997213 1.00409 1.01128 1.01541 1.02097 1.03459 
1.05152 1.06427 1.08086 1.11423 1.15614 1.18679 1.20085 1.20888 1.21732 
1.21993 1.21154 1.20539 1.22043 1.25392 1.28379 1.29483 1.2954 1.29769 
1.30369 1.30752 1.3052 1.29917 1.29293 1.28761 1.28248 1.27668 1.2692 
1.25926 1.24898 1.24215 1.2379 1.22753 1.2046 1.17704 1.15562 1.13603 
1.10577 1.06785 1.0387 1.02281 1.01274 1.00482 0.998983 0.995492 0.994669 
0.995933 0.99838 1.00211 1.00741 1.01351 1.01931 1.02403 1.02729 1.02995 
1.03309 1.03739 1.0433 1.05066 1.05872 1.06489 1.0668 1.06654 1.06715 
1.06692 1.06245 1.05147 1.03298 1.01301 0.999626 0.992166 0.987312 0.983949 
0.983741 0.995687 1.02618 1.07054 1.12261 1.17731 1.23037 1.28138 1.33129 
1.38097 1.43111 1.4824 1.53497 1.58824 1.64158 1.69461 1.74736 1.79988 
1.85216 1.90393 1.95482 2.00445 2.05297 2.10254 2.15584 2.21556 2.28326 
2.35271 2.41428 2.45836 2.47532 2.45773 2.41142 2.34719 2.27585 2.20814 
2.1499 2.09871 2.05133 2.00452 1.95572 1.90493 1.85281 1.8 1.74707 
1.69436 1.64212 1.59059 1.53936 1.48759 1.43451 1.38058 1.32748 1.27664 
1.22677 1.17526 1.12119 1.06782 1.01957 0.983348 0.965314 0.961345 0.96344 
0.965853 0.965963 0.966768 0.968279 0.962719 0.948854 0.934829 0.926614 0.926381 
0.929448 0.929291 0.930101 0.935035 0.937612 0.936741 0.938952 0.942238 0.936619 
0.926995 0.923644 0.925205 0.927765 0.928977 0.928606 0.92866 0.9288 0.927313 
0.92857 0.936214 0.941014 0.939571 0.94333 0.955571 0.967324 0.976089 0.986169 
0.997891 1.00943 1.0182 1.02176 1.02032 1.01516 1.00768 0.999154 0.990104 
0.980789 0.971194 0.961274 0.951099 0.940822 0.930713 0.921085 0.912162 0.903057 
0.892521 0.881379 0.8703 0.85818 0.846149 0.837737 0.835434 0.839719 0.84803 
0.855477 0.856884 0.852673 0.844736 0.835428 0.828846 0.829008 0.833871 0.838638 
0.838724 0.841161 0.849846 0.854447 0.853298 0.853128 0.852496 0.845819 0.827859 
0.806346 0.792596 0.785455 0.780406 0.774002 0.770766 0.77124 0.770279 0.773212 
0.779628 0.781513 0.78898 0.799053 0.792398 0.781778 0.779411 0.786192 0.792711 
0.794665 0.795145 0.793809 0.787932 0.773891 0.753458 0.732183 0.717963 0.713623 
0.710132 0.689039 0.645938 0.616797 0.613474 0.612101 0.619734 0.645583 0.6556 
0.639971 0.624789 0.632952 0.671416 0.690956 0.705708 0.749279 0.7765 0.771765 
0.743987 0.716608 0.702803 0.689118 0.663347 0.634211 0.618215 0.60867 0.612566 
0.625225 0.618854 0.624793 0.596775 0.559669 0.544256 0.546032 0.561593 0.56326 
0.536498 0.500077 0.500501 0.49842 0.509543 0.56963 0.607236 0.624098 0.630121 
0.601731 0.588986 0.564613 0.53468 0.540566 0.536436 0.534139 0.5361 0.564117 
0.61868 0.66397 0.675167 0.663753 0.658362 0.670724 0.691908 0.704806 0.707049 
0.70822 0.720297 0.745985 0.77067 0.772939 0.741922 0.708705 0.692702 0.690719 
0.693305 0.684924 0.657836 0.616999 0.57814 0.576633 0.551953 0.565015 0.59725 
0.560637 0.557786 0.611439 0.623507 0.640538 0.642079 0.631847 0.61061 0.563918 
0.509326 0.499218 0.499017 0.519618 0.540197 0.504722 0.500012 0.495544 0.553177 
0.567984 0.595942 0.651421 0.668633 0.64895 0.636177 0.63149 0.632276 0.624661 
0.642312 0.701222 0.747213 0.758858 0.802264 0.850398 1.92774 1.95843 1.99412 
2.02215 2.02986 2.00804 1.96464 1.91292 1.86611 1.83257 1.81099 1.79892 
1.79388 1.79309 1.79367 1.79276 1.78928 1.78533 1.78335 1.78514 1.78973 
1.79543 1.80056 1.80426 1.80654 1.80749 1.80724 1.80612 1.80457 1.80297 
1.80155 1.80032 1.79927 1.79837 1.79741 1.79615 1.79434 1.79173 1.78807 
1.78309 1.77686 1.77021 1.7641 1.75925 1.75451 1.74784 1.73726 1.72306 
1.70832 1.69629 1.68895 1.68523 1.68356 1.68245 1.68062 1.67685 1.67049 
1.6645 1.66326 1.67074 1.6838 1.69337 1.69023 1.67004 1.63598 1.59189 
1.54129 1.48716 1.43239 1.3792 1.32915 1.28416 1.24798 1.22454 1.21118 
1.19958 1.187 1.18091 1.17286 1.14639 1.09985 1.04705 1.00831 0.989335 
0.986539 0.991591 0.996422 1.00639 1.02743 1.04464 1.04183 1.02904 1.02014 
1.00567 0.97197 0.916327 0.854655 0.843718 0.868258 0.853355 0.818493 0.805142 
0.822935 0.849055 0.857778 0.871446 0.900517 0.927882 0.945911 0.955008 0.958918 
0.962103 0.966187 0.971057 0.973911 0.971566 0.961066 0.942349 0.919469 0.897179 
0.879972 0.868662 0.861766 0.855853 0.849467 0.843137 0.836647 0.83171 0.833431 
0.836346 0.832865 0.833138 0.84106 0.849408 0.854807 0.856892 0.857226 0.843873 
0.802792 0.771797 0.764897 0.755704 0.754264 0.766379 0.783157 0.791988 0.792865 
0.79575 0.801499 0.808158 0.813361 0.815346 0.817869 0.832568 0.865261 0.914961 
0.970417 1.02287 1.07365 1.12469 1.17618 1.22803 1.28007 1.3321 1.38404 
1.43598 1.48804 1.54015 1.59209 1.64365 1.69492 1.74639 1.79861 1.85189 
1.90534 1.95764 2.00748 2.05448 2.10151 2.15211 2.20981 2.27725 2.34836 
2.41229 2.45814 2.475 2.45628 2.40969 2.34591 2.27562 2.20943 2.1531 
2.10382 2.05794 2.0118 1.96227 1.90951 1.85491 1.79992 1.74573 1.69288 
1.64176 1.59268 1.54464 1.49578 1.44423 1.38984 1.33516 1.28278 1.23237 
1.1815 1.12862 1.07541 1.02363 0.970687 0.914037 0.866234 0.842543 0.835691 
0.834584 0.834248 0.833583 0.833024 0.832156 0.82927 0.821826 0.814661 0.810646 
0.803937 0.793171 0.787818 0.8125 0.849554 0.854374 0.850829 0.859104 0.867551 
0.872416 0.877827 0.884818 0.885277 0.862333 0.83085 0.813657 0.783944 0.731373 
0.68266 0.671494 0.678083 0.665457 0.671147 0.68975 0.713439 0.741526 0.763108 
0.784923 0.80674 0.815818 0.817085 0.822348 0.84113 0.868278 0.892938 0.908202 
0.914373 0.916733 0.921203 0.930247 0.935858 0.933894 0.930478 0.929178 0.928891 
0.928519 0.928116 0.931553 0.940989 0.94935 0.949529 0.939587 0.921841 0.903755 
0.890118 0.882185 0.870853 0.849821 0.833992 0.828647 0.823969 0.825148 0.83524 
0.844132 0.8515 0.862976 0.867587 0.85878 0.843195 0.83144 0.829276 0.827264 
0.822859 0.821116 0.81846 0.82225 0.857282 0.899875 0.91458 0.915417 0.91682 
0.91945 0.922501 0.925346 0.927316 0.92901 0.935664 0.949806 0.968415 0.984278 
0.985492 0.974729 0.96467 0.958513 0.9556 0.959235 0.972154 0.982291 0.975763 
0.948593 0.907743 0.877591 0.867421 0.862365 0.858385 0.864318 0.90314 0.962083 
0.970949 0.940592 0.938785 0.950155 0.928137 0.901249 0.90747 0.935555 0.964089 
0.973296 0.96584 0.957066 0.950364 0.942876 0.917381 0.866214 0.815174 0.778648 
0.750113 0.745668 0.767226 0.779679 0.787422 0.797136 0.798573 0.80132 0.81376 
0.82815 0.840168 0.84485 0.829153 0.795654 0.765792 0.756912 0.757988 0.734762 
0.723005 0.719256 0.69856 0.700885 0.739655 0.787918 0.802915 0.815538 0.846337 
0.859093 0.857327 0.863471 0.891715 0.928388 0.948827 0.954319 0.950821 0.9401 
0.92564 0.915089 0.909372 0.90292 0.891493 0.870861 0.834778 0.787797 0.753119 
0.73651 0.721744 0.675047 0.628606 0.617691 0.639374 0.69002 0.736394 0.750441 
0.734761 0.724253 0.741637 0.7738 0.783415 0.783182 0.785892 0.787209 0.763657 
0.72982 0.730962 0.739934 0.739591 0.740314 0.734537 0.701023 0.648327 0.647013 
0.689651 0.746284 0.796024 0.822067 0.826522 0.8202 0.817168 0.821797 0.825947 
0.807502 0.77348 0.757001 0.774124 0.825553 0.894664 0.916819 0.861818 0.807054 
0.777652 0.734615 0.67562 0.638929 1.24967 1.41034 1.59449 1.73496 1.80684 
1.83663 1.85394 1.88058 1.9115 1.9359 1.9435 1.93259 1.90853 1.8769 
1.84263 1.80679 1.76903 1.72901 1.68796 1.65009 1.61997 1.60037 1.58648 
1.57143 1.5498 1.52909 1.5236 1.54474 1.58088 1.60951 1.61105 1.59132 
1.56914 1.56139 1.5674 1.57752 1.58314 1.5837 1.58205 1.58052 1.57729 
1.56866 1.55153 1.52848 1.50538 1.4875 1.47509 1.4661 1.45864 1.45204 
1.44626 1.44171 1.44013 1.44345 1.45251 1.46606 1.48265 1.50013 1.51558 
1.52617 1.53158 1.53375 1.53456 1.53469 1.5343 1.53363 1.5343 1.53893 
1.54969 1.56396 1.57665 1.5831 1.58344 1.58063 1.57747 1.57484 1.57277 
1.57125 1.57041 1.57044 1.57145 1.57307 1.57465 1.57561 1.57547 1.57387 
1.57041 1.56474 1.55651 1.54575 1.53624 1.53402 1.5442 1.56333 1.58345 
1.59721 1.60213 1.5981 1.58506 1.56367 1.53505 1.50039 1.46223 1.42459 
1.39126 1.36167 1.33186 1.29896 1.26396 1.22871 1.19716 1.17569 1.16832 
1.16655 1.15983 1.15235 1.15458 1.16478 1.17205 1.17119 1.17132 1.18061 
1.19306 1.20013 1.20209 1.20251 1.20311 1.2033 1.2023 1.19923 1.19366 
1.18844 1.1873 1.18851 1.1872 1.18285 1.18179 1.18833 1.19689 1.20034 
1.19929 1.19849 1.2004 1.20472 1.21029 1.21422 1.21372 1.20905 1.20175 
1.1912 1.17363 1.14645 1.11058 1.06749 1.01877 0.966353 0.915174 0.870132 
0.814525 0.741736 0.74829 0.802733 
