# vtk DataFile Version 3.0
vtk output
ASCII
DATASET POLYDATA
POINTS 659 float
0 0 0 0.223131 0.0255811 0.140708 0.446931 0.0545406 0.277222 
0.672067 0.0902569 0.405347 0.899209 0.136108 0.520889 1.12902 0.195465 0.619668 
1.36161 0.270329 0.700089 1.59591 0.359813 0.766014 1.83071 0.462664 0.822 
2.06477 0.577626 0.872601 2.29684 0.703402 0.922417 2.52413 0.837305 0.977442 
2.74202 0.975014 1.04531 2.94583 1.11212 1.13375 3.13084 1.2442 1.25049 
3.29303 1.36708 1.40237 3.43658 1.47954 1.58502 3.57128 1.58236 1.78649 
3.70702 1.67637 1.99469 3.8537 1.76238 2.19753 4.01895 1.84153 2.38517 
4.20105 1.91627 2.55725 4.39583 1.98939 2.71585 4.59913 2.06368 2.86306 
4.80695 2.14152 3.00112 5.01696 2.22151 3.13379 5.2277 2.3002 3.26559 
5.43774 2.37415 3.40107 5.64627 2.44104 3.54301 5.85503 2.50311 3.68714 
6.06639 2.56372 3.82748 6.28265 2.62611 3.95825 6.50362 2.69094 4.07976 
6.72635 2.75592 4.19925 6.94774 2.81859 4.32426 7.16702 2.87735 4.45641 
7.38877 2.93252 4.58369 7.61831 2.98472 4.69218 7.85955 3.03426 4.77189 
8.10919 3.08001 4.83348 8.36153 3.12039 4.8942 8.61203 3.15408 4.96681 
8.86188 3.18132 5.04007 9.11423 3.20287 5.09483 9.37159 3.21937 5.11596 
9.63279 3.23082 5.11205 9.89528 3.23693 5.1004 10.1569 3.23762 5.09547 
10.4176 3.23355 5.09689 10.6779 3.22563 5.09952 10.9383 3.21468 5.09938 
11.1988 3.20105 5.0982 11.4594 3.18493 5.09939 11.72 3.16654 5.10474 
11.9803 3.14614 5.10803 12.2397 3.12402 5.10068 12.4979 3.10031 5.0765 
12.7553 3.07453 5.04107 13.0122 3.04595 5.00353 13.269 3.01397 4.97113 
13.5255 2.97847 4.94071 13.7812 2.93951 4.90563 14.0354 2.8966 4.85961 
14.2848 2.84592 4.79844 14.5251 2.78245 4.71866 14.7524 2.70177 4.61742 
14.9635 2.60404 4.49603 15.156 2.49144 4.35772 15.3278 2.36627 4.20576 
15.4829 2.2324 4.04436 15.6304 2.09484 3.8784 15.7789 1.95842 3.71265 
15.9309 1.82366 3.54905 16.0829 1.68708 3.38695 16.2313 1.54524 3.2256 
16.3777 1.40076 3.06441 16.5293 1.26292 2.90296 16.6933 1.14124 2.74092 
16.8738 1.03901 2.58116 17.0699 0.950597 2.43115 17.2802 0.8697 2.29873 
17.503 0.791277 2.18889 17.7347 0.715232 2.09562 17.9713 0.642677 2.0102 
18.2089 0.574413 1.92458 18.4452 0.509488 1.83439 18.6782 0.446315 1.73663 
18.9063 0.383367 1.62863 19.1302 0.319819 1.51183 19.3523 0.25532 1.39049 
19.5749 0.189507 1.26889 19.798 0.119802 1.14937 20.0165 0.0393938 1.03057 
20.2249 -0.0590055 0.91075 20.419 -0.18093 0.788694 20.601 -0.322834 0.666151 
20.775 -0.478241 0.545815 20.9452 -0.640938 0.430427 21.1144 -0.808522 0.323448 
21.2849 -0.981453 0.228875 21.4584 -1.15977 0.14968 21.6354 -1.33764 0.0764379 
21.8152 -1.50539 -0.00843379 21.997 -1.65713 -0.116554 22.1785 -1.79888 -0.240775 
22.3575 -1.93863 -0.370639 22.5342 -2.07931 -0.50099 22.7112 -2.21927 -0.631406 
22.8898 -2.35723 -0.762156 23.0692 -2.49285 -0.894561 23.2485 -2.62587 -1.02954 
23.4291 -2.75586 -1.16565 23.6125 -2.8823 -1.30119 23.7979 -3.00413 -1.4384 
23.9837 -3.12025 -1.58098 24.1725 -3.23289 -1.72186 24.3709 -3.34703 -1.84515 
24.5808 -3.46398 -1.94678 24.7972 -3.58 -2.03886 25.0119 -3.68965 -2.13968 
25.2135 -3.78627 -2.27216 25.4076 -3.87257 -2.42483 25.6157 -3.96029 -2.55366 
25.8372 -4.05239 -2.65759 26.0471 -4.14217 -2.78213 26.2421 -4.23024 -2.9323 
26.4349 -4.32266 -3.08276 26.6313 -4.42147 -3.22294 26.8309 -4.52509 -3.35571 
27.029 -4.63033 -3.48972 27.2155 -4.73228 -3.64005 27.3894 -4.83029 -3.80844 
27.5669 -4.93213 -3.97025 27.7623 -5.04448 -4.10382 27.9591 -5.15862 -4.23261 
28.129 -5.25969 -4.3981 28.275 -5.34841 -4.59743 28.4273 -5.43895 -4.78938 
28.6104 -5.5433 -4.93992 28.8158 -5.66069 -5.05562 29.0255 -5.78679 -5.15445 
29.2322 -5.92096 -5.24098 29.4369 -6.06571 -5.3086 29.6397 -6.22252 -5.35529 
29.8372 -6.39009 -5.39165 30.0262 -6.5666 -5.42926 30.2072 -6.7498 -5.47076 
30.3831 -6.93724 -5.5143 30.5562 -7.12733 -5.55729 30.7282 -7.31988 -5.59607 
30.9 -7.51439 -5.62946 31.07 -7.70802 -5.67032 31.2362 -7.89732 -5.73541 
31.3994 -8.08275 -5.8205 31.5641 -8.2689 -5.89933 31.7338 -8.45933 -5.95163 
31.9067 -8.65235 -5.98644 32.0799 -8.84506 -6.01996 32.2518 -9.03688 -6.0601 
32.4219 -9.22915 -6.1079 32.59 -9.42321 -6.15891 32.7565 -9.6203 -6.19547 
32.922 -9.82138 -6.20158 33.0856 -10.0252 -6.19459 33.2461 -10.2294 -6.20917 
33.4034 -10.4333 -6.25394 33.559 -10.6386 -6.29564 33.7147 -10.847 -6.30416 
33.87 -11.0574 -6.29607 34.0236 -11.2673 -6.30698 34.1757 -11.4754 -6.34857 
34.3289 -11.6826 -6.39157 34.4857 -11.8897 -6.40593 34.6465 -12.0959 -6.3987 
34.8097 -12.2992 -6.40065 34.9745 -12.4985 -6.43273 35.1412 -12.695 -6.47707 
35.3104 -12.8908 -6.50675 35.4816 -13.0872 -6.51073 35.6524 -13.2851 -6.50255 
35.8206 -13.4851 -6.49679 35.9855 -13.6872 -6.49709 36.1475 -13.8914 -6.50046 
36.3068 -14.0976 -6.50356 36.4633 -14.3065 -6.50239 36.6166 -14.5184 -6.49382 
36.7659 -14.7329 -6.48853 36.9096 -14.9488 -6.50705 37.0476 -15.1658 -6.55332 
37.182 -15.3854 -6.59552 37.315 -15.609 -6.60436 37.446 -15.8352 -6.59752 
37.5739 -16.0613 -6.61064 37.6986 -16.2864 -6.65327 37.8212 -16.5114 -6.70938 
37.9429 -16.7373 -6.76231 38.0638 -16.9654 -6.79641 38.184 -17.1965 -6.80027 
38.3041 -17.4287 -6.79381 38.4246 -17.6585 -6.811 38.5454 -17.8857 -6.85708 
38.6648 -18.114 -6.89791 38.7818 -18.3465 -6.90509 38.8971 -18.5812 -6.89769 
39.0124 -18.8141 -6.91022 39.1294 -19.0434 -6.95263 39.2501 -19.2695 -7.00581 
39.3755 -19.4933 -7.05454 39.5036 -19.7157 -7.09961 39.4633 -19.9671 -7.15979 
39.4309 -20.2164 -7.22824 39.4139 -20.4614 -7.31323 39.4154 -20.7028 -7.41279 
39.4255 -20.9483 -7.49806 39.4344 -21.2036 -7.54803 39.4415 -21.4598 -7.59482 
39.4483 -21.7065 -7.67516 39.455 -21.9476 -7.7757 39.461 -22.1904 -7.87042 
39.4669 -22.4349 -7.95916 39.4735 -22.6779 -8.05381 39.4815 -22.9209 -8.1481 
39.4915 -23.17 -8.22029 39.5089 -23.4258 -8.2667 39.5463 -23.6802 -8.31253 
39.6122 -23.9273 -8.36731 39.7061 -24.1665 -8.40494 39.82 -24.4002 -8.40929 
39.9317 -24.6368 -8.39633 40.0274 -24.8798 -8.39037 40.1127 -25.1222 -8.4215 
40.1916 -25.3625 -8.48615 40.2641 -25.6051 -8.54899 40.3301 -25.8501 -8.60641 
40.3906 -26.0961 -8.66642 40.449 -26.3427 -8.72711 40.505 -26.5901 -8.78559 
40.5543 -26.8394 -8.84084 40.599 -27.0893 -8.9001 40.6438 -27.3387 -8.96567 
40.6897 -27.5911 -9.00259 40.7367 -27.8477 -8.99772 40.7843 -28.1023 -9.01104 
40.8314 -28.3523 -9.06799 40.8758 -28.6021 -9.13111 40.9147 -28.8536 -9.18538 
40.9447 -29.1061 -9.24053 40.9676 -29.3591 -9.29827 40.9868 -29.6124 -9.35596 
41.0013 -29.8658 -9.41386 41.0108 -30.1194 -9.47205 41.0191 -30.3734 -9.52884 
41.0278 -30.6276 -9.58484 41.0361 -30.8812 -9.64233 41.0438 -31.1359 -9.6966 
41.0504 -31.3926 -9.74456 41.055 -31.6438 -9.80996 41.0583 -31.8836 -9.9106 
41.0672 -32.1184 -10.0249 41.0847 -32.3537 -10.135 41.1033 -32.5888 -10.2453 
41.1208 -32.8218 -10.3603 41.1425 -33.0515 -10.4808 41.1645 -33.2824 -10.5992 
41.1791 -33.5179 -10.7109 41.1878 -33.7416 -10.8424 41.1938 -33.9497 -10.9999 
41.199 -34.1672 -11.1412 41.2046 -34.4042 -11.2495 41.2116 -34.643 -11.3546 
41.2196 -34.8778 -11.4665 41.2267 -35.1155 -11.5739 41.2313 -35.3484 -11.6897 
41.2322 -35.5635 -11.8351 41.2304 -35.7678 -11.9981 41.2274 -35.973 -12.1588 
41.2234 -36.1832 -12.312 41.2194 -36.3982 -12.4592 41.2181 -36.609 -12.6119 
41.2214 -36.8088 -12.7783 41.2288 -37.0041 -12.9508 41.2393 -37.203 -13.1191 
41.2554 -37.4078 -13.2793 41.2817 -37.6176 -13.4312 41.3189 -37.8307 -13.5764 
41.3584 -38.0434 -13.7215 41.391 -38.2521 -13.873 41.4148 -38.4559 -14.0329 
41.4358 -38.6569 -14.1975 41.4602 -38.8574 -14.3631 41.4902 -39.0566 -14.5294 
41.5218 -39.2503 -14.7009 41.551 -39.4338 -14.8823 41.5744 -39.604 -15.0771 
41.5935 -39.7653 -15.2809 41.6113 -39.9248 -15.4867 41.6309 -40.0896 -15.6874 
41.6544 -40.2649 -15.8781 41.6797 -40.4471 -16.0622 41.7035 -40.63 -16.2462 
41.7225 -40.8073 -16.4364 41.7338 -40.9733 -16.6385 41.7414 -41.1292 -16.8503 
41.7531 -41.2803 -17.0648 41.7769 -41.432 -17.275 41.8209 -41.5897 -17.4737 
41.8912 -41.7577 -17.6556 41.9818 -41.9331 -17.8251 42.0825 -42.1103 -17.9903 
42.1832 -42.2836 -18.1595 42.2734 -42.4474 -18.3408 42.3484 -42.5987 -18.5383 
42.4145 -42.7397 -18.7474 42.4796 -42.8734 -18.9623 42.5517 -43.0027 -19.1775 
42.6368 -43.1304 -19.3882 42.731 -43.2583 -19.5946 42.8273 -43.3879 -19.799 
42.9184 -43.5206 -20.0034 42.9993 -43.6571 -20.2097 43.0725 -43.7942 -20.4187 
43.1427 -43.9284 -20.6308 43.2144 -44.056 -20.8464 43.2919 -44.1761 -21.0643 
43.379 -44.2893 -21.2822 43.4796 -44.3963 -21.4979 43.5875 -44.4997 -21.7122 
43.6857 -44.6046 -21.9288 43.7584 -44.7155 -22.1513 43.8078 -44.8344 -22.3779 
43.848 -44.9611 -22.6034 43.8883 -45.0938 -22.825 43.9196 -45.2232 -23.0481 
43.9305 -45.3407 -23.2793 43.9265 -45.4542 -23.5142 43.921 -45.5789 -23.7434 
43.9245 -45.7239 -23.9598 43.9452 -45.8936 -24.1571 43.987 -46.0901 -24.3235 
44.0408 -46.2992 -24.4697 44.0744 -46.4792 -24.6534 44.0903 -46.6609 -24.8392 
44.1012 -46.8732 -24.9902 44.1075 -47.0816 -25.1464 44.1122 -47.2845 -25.3092 
44.1213 -47.4941 -25.4646 44.1343 -47.6919 -25.6322 44.1522 -47.8555 -25.835 
44.1992 -48.0395 -26.011 44.2583 -48.238 -26.1702 44.3141 -48.4257 -26.3417 
44.3772 -48.6103 -26.5142 44.4437 -48.7945 -26.6857 44.5133 -48.9624 -26.8727 
44.5447 -49.1041 -27.0884 44.5621 -49.2662 -27.2914 44.5496 -49.4629 -27.4618 
44.4963 -49.638 -27.6455 44.4619 -49.7716 -27.8671 44.4192 -49.9415 -28.0595 
44.3257 -50.1185 -28.2269 44.2158 -50.2508 -28.4215 44.0983 -50.366 -28.6229 
43.9546 -50.5012 -28.7932 43.8161 -50.599 -28.9916 43.6522 -50.6929 -29.1688 
43.4712 -50.7942 -29.3263 43.3145 -50.8736 -29.5198 43.1319 -50.9549 -29.6838 
42.9293 -51.0365 -29.8265 42.7516 -51.1001 -30.0057 42.5895 -51.1576 -30.2037 
42.4168 -51.2186 -30.3881 42.2155 -51.2837 -30.5413 42.0463 -51.3433 -30.7261 
41.9067 -51.4003 -30.9412 41.7637 -51.4589 -31.1508 41.6476 -51.5043 -31.3782 
41.5434 -51.5503 -31.613 41.4248 -51.6166 -31.8352 41.3143 -51.692 -32.0586 
41.2147 -51.776 -32.2842 41.1252 -51.8652 -32.5118 41.0545 -51.9456 -32.7492 
40.9792 -52.033 -32.9825 40.8976 -52.1339 -33.2083 40.8385 -52.2331 -33.4416 
40.7913 -52.3174 -33.6841 40.7416 -52.3964 -33.9274 40.6852 -52.5068 -34.1555 
40.6345 -52.6213 -34.3841 40.5935 -52.7201 -34.6219 40.5429 -52.8472 -34.8423 
40.491 -52.9825 -35.059 40.4497 -53.0972 -35.2896 40.4008 -53.2304 -35.5067 
40.3416 -53.3927 -35.7026 40.2855 -53.564 -35.8909 40.238 -53.7418 -36.0747 
40.1994 -53.924 -36.2568 40.1653 -54.1035 -36.4422 40.1306 -54.2814 -36.6293 
40.0931 -54.4638 -36.8115 40.0563 -54.6595 -36.9793 40.0021 -54.8623 -37.1333 
39.9167 -55.0501 -37.2926 39.8354 -55.2053 -37.4845 39.7547 -55.334 -37.6984 
39.6703 -55.4722 -37.9012 39.5956 -55.6549 -38.0713 39.553 -55.82 -38.2669 
39.5358 -55.9609 -38.4879 39.5228 -56.1151 -38.6965 39.4973 -56.3049 -38.8735 
39.465 -56.4499 -39.0863 39.424 -56.6016 -39.2929 39.371 -56.7901 -39.4667 
39.3142 -56.9576 -39.6564 39.2569 -57.0973 -39.8693 39.1834 -57.2754 -40.0442 
39.1193 -57.4276 -40.2441 39.0546 -57.5772 -40.4463 38.9801 -57.7542 -40.6217 
38.9256 -57.8898 -40.8379 38.8621 -58.0586 -41.0255 38.8077 -58.204 -41.2326 
38.7422 -58.3339 -41.4467 38.6401 -58.5004 -41.6202 38.5534 -58.6326 -41.8269 
38.4706 -58.7507 -42.0459 38.37 -58.8901 -42.2403 38.2621 -59.0481 -42.4164 
38.1924 -59.1775 -42.6313 38.131 -59.3117 -42.8464 38.0728 -59.4496 -43.0597 
38.0134 -59.5857 -43.2738 37.9174 -59.7479 -43.4535 37.827 -59.8787 -43.6574 
37.7453 -59.989 -43.881 37.6443 -60.1187 -44.0829 37.5167 -60.2623 -44.2592 
37.4069 -60.3775 -44.4636 37.3158 -60.471 -44.6905 37.2252 -60.5661 -44.915 
37.1338 -60.6625 -45.1391 37.0521 -60.7399 -45.3736 36.9766 -60.8149 -45.6117 
36.91 -60.8864 -45.8526 36.8582 -60.9372 -46.1029 36.8019 -61.0022 -46.3484 
36.7395 -61.0773 -46.59 36.6818 -61.1466 -46.8342 36.6307 -61.2191 -47.079 
36.5798 -61.2879 -47.325 36.5365 -61.3551 -47.5728 36.5084 -61.4288 -47.821 
36.4895 -61.5014 -48.0703 36.4725 -61.5586 -48.3238 36.4626 -61.6079 -48.5793 
36.4481 -61.6662 -48.8327 36.4304 -61.7431 -49.0807 36.4188 -61.8299 -49.3261 
36.4166 -61.9066 -49.5749 36.4383 -61.9691 -49.8267 36.4804 -62.0209 -50.0787 
36.5176 -62.0539 -50.3338 36.5434 -62.0712 -50.5927 36.5718 -62.0949 -50.8506 
36.597 -62.1467 -51.1044 36.6346 -62.2078 -51.3547 36.6942 -62.2637 -51.602 
36.7575 -62.3355 -51.8442 36.8383 -62.4066 -52.0812 36.9434 -62.4501 -52.3165 
37.0872 -62.4617 -52.5326 37.2751 -62.4577 -52.7134 37.4666 -62.4476 -52.8894 
37.66 -62.4412 -53.0637 37.8571 -62.4425 -53.2338 38.0551 -62.443 -53.403 
38.2527 -62.4423 -53.5721 38.449 -62.4319 -53.7444 38.6541 -62.391 -53.899 
38.889 -62.3223 -53.9872 39.1232 -62.2478 -54.0734 39.359 -62.1677 -54.1537 
39.5718 -62.095 -54.2813 39.7788 -62.03 -54.4231 40.0202 -61.9635 -54.4982 
40.2606 -61.9087 -54.5818 40.5029 -61.8523 -54.6615 40.7265 -61.8004 -54.7794 
40.9292 -61.7609 -54.9425 41.1405 -61.7267 -55.0904 41.3828 -61.6884 -55.1767 
41.6106 -61.6696 -55.2999 41.7984 -61.6687 -55.4832 41.9703 -61.6746 -55.6781 
42.1721 -61.6864 -55.841 42.3809 -61.6961 -55.9973 42.5883 -61.6984 -56.1542 
42.7936 -61.6953 -56.3148 42.9656 -61.6935 -56.5123 43.0767 -61.6942 -56.7459 
43.1416 -61.6964 -57 39.7559 -19.8194 -7.17097 40.0039 -19.8257 -7.19997 
40.2434 -19.7018 -7.18192 40.4717 -19.6236 -7.2332 40.6959 -19.6747 -7.37452 
40.9342 -19.7464 -7.46557 41.1808 -19.8188 -7.52287 41.4049 -19.9043 -7.62549 
41.5949 -19.9956 -7.78247 41.8145 -20.0913 -7.89324 42.056 -20.1998 -7.89317 
42.2455 -20.3534 -7.98219 42.4631 -20.495 -7.99568 42.6902 -20.586 -8.08504 
42.945 -20.6451 -8.09711 43.1831 -20.6025 -8.18936 43.4233 -20.5842 -8.29463 
43.66 -20.562 -8.40572 43.8979 -20.5335 -8.51269 44.1391 -20.5346 -8.61634 
44.3801 -20.5526 -8.71881 44.6213 -20.5674 -8.82066 44.855 -20.5776 -8.94162 
45.0403 -20.5631 -9.12632 45.1912 -20.4808 -9.3159 45.4346 -20.5561 -9.39371 
45.685 -20.6088 -9.46904 45.9212 -20.6889 -9.53848 46.1424 -20.7882 -9.63755 
46.352 -20.8517 -9.78385 46.5758 -20.9566 -9.86947 46.785 -21.067 -9.97881 
46.9721 -21.1636 -10.1408 47.1601 -21.2743 -10.2866 47.3626 -21.4178 -10.3713 
47.5476 -21.5572 -10.4907 47.7101 -21.6961 -10.6457 47.8677 -21.8494 -10.7886 
48.0262 -21.9958 -10.9381 48.1737 -22.1544 -11.0859 48.3082 -22.3251 -11.2336 
48.4336 -22.4956 -11.3888 48.5442 -22.6787 -11.5408 48.6441 -22.8666 -11.6946 
48.7331 -23.056 -11.853 48.805 -23.2524 -12.0116 48.8576 -23.4567 -12.1677 
48.9015 -23.6602 -12.3277 48.9394 -23.8688 -12.4823 48.9724 -24.0825 -12.6313 
49.0045 -24.2972 -12.7788 49.0379 -24.5216 -12.9115 49.0612 -24.7343 -13.0628 
49.0765 -24.9317 -13.2366 49.1093 -25.1501 -13.3739 49.1566 -25.3853 -13.4836 
49.1932 -25.6044 -13.6216 49.206 -25.8119 -13.7844 49.1941 -26.0213 -13.95 
49.1957 -26.2204 -14.1207 49.2583 -26.3902 -14.3058 49.3667 -26.5383 -14.5006 
49.452 -26.6958 -14.6887 49.4599 -26.888 -14.8556 49.416 -27.1099 -14.9993 
49.3695 -27.3472 -15.1214 49.3518 -27.5891 -15.2255 49.353 -27.8332 -15.3195 
49.3571 -28.0783 -15.4118 49.3544 -28.3236 -15.5068 49.3513 -28.5705 -15.5979 
49.357 -28.8206 -15.6765 49.3804 -29.0752 -15.7351 49.4229 -29.3317 -15.78 
49.4811 -29.5848 -15.8268 49.5516 -29.829 -15.8914 49.6307 -30.0597 -15.987 
49.714 -30.2758 -16.1134 49.7971 -30.4775 -16.2652 49.8752 -30.6652 -16.4371 
49.9444 -30.8392 -16.624 50.0048 -31.0014 -16.822 50.0601 -31.1547 -17.0278 
50.1137 -31.3019 -17.2384 50.1691 -31.4459 -17.4507 50.2292 -31.589 -17.6621 
50.2921 -31.7295 -17.8744 50.3531 -31.8633 -18.0915 50.4077 -31.9867 -18.3174 
50.4514 -32.0956 -18.5559 50.4843 -32.1914 -18.8058 50.5159 -32.286 -19.0551 
50.5568 -32.3927 -19.2904 50.6177 -32.5248 -19.4984 50.7062 -32.6916 -19.669 
50.8183 -32.8865 -19.8058 50.9466 -33.0985 -19.9158 51.0839 -33.3169 -20.0059 
51.2239 -33.5322 -20.0847 51.3633 -33.7395 -20.1665 51.4993 -33.935 -20.2663 
51.6294 -34.1154 -20.3974 51.7532 -34.2836 -20.5565 51.8713 -34.446 -20.7302 
51.9844 -34.6087 -20.9062 52.0918 -34.7707 -21.0831 52.1923 -34.9256 -21.2681 
52.2847 -35.0697 -21.4662 52.372 -35.2156 -21.6665 52.4581 -35.3829 -21.8514 
52.5445 -35.5678 -22.0215 52.6278 -35.7269 -22.208 52.7064 -35.8305 -22.4328 
52.7877 -35.9117 -22.6727 52.8779 -36.0075 -22.9011 52.9656 -36.0977 -23.1303 
53.0456 -36.1613 -23.3724 53.1455 -36.2305 -23.6044 53.266 -36.3183 -23.821 
53.3775 -36.4094 -24.0403 53.4721 -36.4987 -24.2696 53.588 -36.6114 -24.4749 
53.712 -36.7245 -24.6751 53.8141 -36.8077 -24.9027 53.9547 -36.9189 -25.0944 
54.0991 -37.0324 -25.2823 54.2077 -37.1204 -25.5048 54.3279 -37.2314 -25.708 
54.4663 -37.359 -25.892 54.6001 -37.4828 -26.0805 54.7351 -37.6132 -26.2641 
54.8719 -37.7372 -26.4506 55.0066 -37.8531 -26.6438 55.1414 -37.965 -26.8393 
55.2758 -38.0767 -27.035 55.3922 -38.2022 -27.2345 55.4923 -38.3582 -27.4185 
55.5979 -38.5472 -27.5604 55.6303 -38.7124 -27.7666 55.6627 -38.8781 -27.9656 
55.6757 -39.0565 -28.1612 55.7258 -39.213 -28.3581 55.8475 -39.3067 -28.5745 
55.9592 -39.4207 -28.7814 56.0687 -39.5244 -28.9995 56.1918 -39.6779 -29.1652 
56.2636 -39.8538 -29.3409 56.3292 -40.0049 -29.5466 56.3973 -40.1611 -29.7464 
56.4672 -40.3237 -29.9376 56.5636 -40.4375 -30.1616 56.7888 -40.445 -30.2853 
56.9539 -40.5223 -30.4694 57.1546 -40.6279 -30.5996 
LINES 3 664
209 0 1 2 3 4 5 6 7 8 9 10 11 12 13 14 15 16 17 18 19 20 21 22 23 24 25 26 27 28 29 30 31 32 33 34 35 36 37 38 39 40 41 42 43 44 45 46 47 48 49 50 51 52 53 54 55 56 57 58 59 60 61 62 63 64 65 66 67 68 69 70 71 72 73 74 75 76 77 78 79 80 81 82 83 84 85 86 87 88 89 90 91 92 93 94 95 96 97 98 99 100 101 102 103 104 105 106 107 108 109 110 111 112 113 114 115 116 117 118 119 120 121 122 123 124 125 126 127 128 129 130 131 132 133 134 135 136 137 138 139 140 141 142 143 144 145 146 147 148 149 150 151 152 153 154 155 156 157 158 159 160 161 162 163 164 165 166 167 168 169 170 171 172 173 174 175 176 177 178 179 180 181 182 183 184 185 186 187 188 189 190 191 192 193 194 195 196 197 198 199 200 201 202 203 204 205 206 207 208 
297 208 209 210 211 212 213 214 215 216 217 218 219 220 221 222 223 224 225 226 227 228 229 230 231 232 233 234 235 236 237 238 239 240 241 242 243 244 245 246 247 248 249 250 251 252 253 254 255 256 257 258 259 260 261 262 263 264 265 266 267 268 269 270 271 272 273 274 275 276 277 278 279 280 281 282 283 284 285 286 287 288 289 290 291 292 293 294 295 296 297 298 299 300 301 302 303 304 305 306 307 308 309 310 311 312 313 314 315 316 317 318 319 320 321 322 323 324 325 326 327 328 329 330 331 332 333 334 335 336 337 338 339 340 341 342 343 344 345 346 347 348 349 350 351 352 353 354 355 356 357 358 359 360 361 362 363 364 365 366 367 368 369 370 371 372 373 374 375 376 377 378 379 380 381 382 383 384 385 386 387 388 389 390 391 392 393 394 395 396 397 398 399 400 401 402 403 404 405 406 407 408 409 410 411 412 413 414 415 416 417 418 419 420 421 422 423 424 425 426 427 428 429 430 431 432 433 434 435 436 437 438 439 440 441 442 443 444 445 446 447 448 449 450 451 452 453 454 455 456 457 458 459 460 461 462 463 464 465 466 467 468 469 470 471 472 473 474 475 476 477 478 479 480 481 482 483 484 485 486 487 488 489 490 491 492 493 494 495 496 497 498 499 500 501 502 503 504 
155 208 505 506 507 508 509 510 511 512 513 514 515 516 517 518 519 520 521 522 523 524 525 526 527 528 529 530 531 532 533 534 535 536 537 538 539 540 541 542 543 544 545 546 547 548 549 550 551 552 553 554 555 556 557 558 559 560 561 562 563 564 565 566 567 568 569 570 571 572 573 574 575 576 577 578 579 580 581 582 583 584 585 586 587 588 589 590 591 592 593 594 595 596 597 598 599 600 601 602 603 604 605 606 607 608 609 610 611 612 613 614 615 616 617 618 619 620 621 622 623 624 625 626 627 628 629 630 631 632 633 634 635 636 637 638 639 640 641 642 643 644 645 646 647 648 649 650 651 652 653 654 655 656 657 658 

POINT_DATA 659
SCALARS radiiScalars double
LOOKUP_TABLE default
2.56268 2.56083 2.55592 2.54887 2.54062 2.53211 2.52424 2.51785 2.51379 
2.51288 2.5159 2.52157 2.5262 2.52597 2.51707 2.49603 2.46391 2.42487 
2.3831 2.3428 2.30705 2.27431 2.24182 2.20683 2.16685 2.12172 2.07256 
2.02049 1.96683 1.91369 1.86338 1.81817 1.77893 1.74497 1.7155 1.68975 
1.66689 1.64607 1.62666 1.60906 1.59398 1.58195 1.57244 1.56458 1.5577 
1.55231 1.5493 1.54934 1.55161 1.55485 1.55797 1.56087 1.56374 1.56668 
1.56949 1.57187 1.57359 1.57487 1.57606 1.57743 1.57886 1.58015 1.58143 
1.58514 1.59457 1.61199 1.6325 1.64792 1.65069 1.64175 1.62851 1.61829 
1.61451 1.61686 1.62487 1.63644 1.64772 1.65479 1.65644 1.65529 1.65423 
1.65574 1.66058 1.6691 1.68136 1.69591 1.71077 1.72407 1.73546 1.74567 
1.7554 1.76391 1.76771 1.76298 1.74663 1.71948 1.68358 1.64094 1.59298 
1.54066 1.48521 1.43122 1.38552 1.35171 1.32337 1.29262 1.25981 1.23255 
1.21373 1.19643 1.17455 1.15107 1.13101 1.1148 1.10049 1.08679 1.07297 
1.059 1.04575 1.03445 1.02664 1.0226 1.02142 1.0237 1.03176 1.04698 
1.06973 1.09557 1.11616 1.1304 1.14605 1.16779 1.19324 1.21905 1.24045 
1.2524 1.256 1.25765 1.26247 1.26849 1.27176 1.27082 1.26634 1.25995 
1.25559 1.25693 1.26218 1.2668 1.26854 1.26882 1.26908 1.26926 1.2688 
1.26751 1.26561 1.26338 1.26115 1.2593 1.25803 1.25738 1.25748 1.25865 
1.26123 1.26543 1.27141 1.27932 1.28929 1.30132 1.31459 1.32793 1.34085 
1.35402 1.36801 1.38105 1.38986 1.3923 1.39076 1.38864 1.38683 1.38234 
1.37221 1.35731 1.34082 1.32481 1.3081 1.28916 1.26952 1.2529 1.24125 
1.23275 1.22539 1.2193 1.21547 1.21455 1.21683 1.22246 1.23116 1.24246 
1.25491 1.26665 1.27667 1.2852 1.29188 1.29263 1.28211 1.25437 1.20278 
1.135 1.09991 1.11889 1.1515 1.16127 1.13127 1.09589 1.08766 1.09472 
1.09769 1.10019 1.11168 1.12999 1.14708 1.15581 1.14988 1.12901 1.10226 
1.07605 1.04995 1.02268 0.992779 0.958708 0.919273 0.883105 0.86606 0.861187 
0.857622 0.863059 0.879466 0.898878 0.917041 0.932179 0.943557 0.950812 0.953837 
0.952073 0.944395 0.932516 0.920724 0.911899 0.907172 0.903731 0.90204 0.910887 
0.927703 0.939158 0.94301 0.943285 0.944793 0.949217 0.948981 0.940261 0.930363 
0.92192 0.910804 0.905047 0.915591 0.931942 0.944409 0.954067 0.961387 0.964291 
0.962776 0.95917 0.956656 0.957565 0.957553 0.955059 0.968871 1.01296 1.06969 
1.12137 1.16971 1.21985 1.27265 1.32649 1.3802 1.43359 1.48662 1.53929 
1.59166 1.64377 1.69571 1.74753 1.79932 1.85107 1.90238 1.95274 2.00162 
2.04897 2.09702 2.14869 2.2069 2.27391 2.34435 2.40812 2.45505 2.47495 
2.45987 2.41544 2.3524 2.28148 2.21342 2.1548 2.10348 2.05623 2.00978 
1.96132 1.91046 1.85766 1.80337 1.7482 1.6934 1.64039 1.59036 1.54242 
1.49434 1.44393 1.391 1.33753 1.28554 1.23565 1.18763 1.14097 1.09405 
1.04518 0.994135 0.941395 0.887849 0.834503 0.781244 0.733774 0.709571 0.699739 
0.689128 0.676093 0.665019 0.656999 0.649978 0.643777 0.641574 0.63006 0.61407 
0.611305 0.610732 0.629117 0.634714 0.629348 0.622756 0.607404 0.597872 0.645712 
0.682448 0.686797 0.698999 0.735552 0.743539 0.744781 0.756802 0.768038 0.780813 
0.790118 0.788953 0.78542 0.779535 0.765133 0.752873 0.745706 0.740062 0.737819 
0.739078 0.742689 0.747899 0.757695 0.768168 0.770903 0.784417 0.806497 0.808815 
0.805792 0.809009 0.81102 0.811302 0.813805 0.821177 0.832 0.84395 0.857611 
0.867133 0.862495 0.843325 0.818395 0.801377 0.775798 0.730931 0.706506 0.707202 
0.707506 0.709061 0.709258 0.708037 0.705385 0.685557 0.66302 0.649027 0.635471 
0.628376 0.631625 0.640385 0.649584 0.659857 0.667289 0.668246 0.662534 0.653824 
0.64831 0.650049 0.66984 0.688912 0.686285 0.68109 0.675357 0.678563 0.695204 
0.707909 0.710133 0.710465 0.709079 0.687649 0.682051 0.680449 0.666952 0.667482 
0.682534 0.692543 0.690326 0.6895 0.696059 0.699952 0.699758 0.699809 0.681476 
0.659136 0.65 0.643325 0.641458 0.643221 0.643844 0.644646 0.6456 0.638033 
0.632472 0.637149 0.653144 0.678609 0.705 0.704131 0.692122 0.688266 0.687759 
0.691157 0.685095 0.668144 0.663072 0.642408 0.624652 0.623477 0.621544 0.615834 
0.613967 0.616077 0.618301 0.617455 0.620256 0.621661 0.595959 0.595152 0.609134 
0.628904 0.646359 0.646841 0.643267 0.648716 0.659052 0.669048 0.678536 0.686553 
0.690173 0.690658 0.690695 0.69126 0.692096 0.700007 0.717281 0.735645 0.758117 
0.771604 1.06353 0.995595 0.941245 0.891397 0.837296 0.785586 0.729602 0.67334 
0.626911 0.574031 0.555676 0.510263 0.498406 0.500462 0.499925 0.500014 0.499998 
0.499999 0.500009 0.499954 0.500194 0.499167 0.505275 0.546861 0.606721 0.651334 
0.667994 0.684405 0.699104 0.696524 0.69219 0.691308 0.692419 0.693242 0.693379 
0.698737 0.704187 0.704418 0.705841 0.706109 0.706851 0.707213 0.694846 0.682987 
0.670585 0.657001 0.660589 0.674271 0.68488 0.688377 0.698632 0.741872 0.796341 
0.843217 0.894178 0.951065 1.00708 1.06056 1.11193 1.16193 1.21142 1.26118 
1.312 1.36441 1.41793 1.47173 1.52518 1.57804 1.63015 1.68155 1.73292 
1.78505 1.83864 1.89312 1.94709 1.9991 2.04828 2.09688 2.14824 2.20571 
2.27198 2.34212 2.40608 2.45373 2.47494 2.46117 2.41701 2.35347 2.28162 
2.21247 2.15279 2.10046 2.05231 2.00516 1.9564 1.90579 1.8537 1.80049 
1.74658 1.69251 1.63886 1.58613 1.53409 1.48208 1.4295 1.37652 1.32389 
1.27218 1.22071 1.1683 1.11508 1.06351 1.01478 0.964996 0.910551 0.85619 
0.805332 0.750223 0.693877 0.651019 0.628113 0.613011 0.601406 0.597548 0.589212 
0.58027 0.584819 0.588614 0.586794 0.585053 0.56757 0.54067 0.534696 0.52682 
0.516892 0.508488 0.50003 0.500145 0.499963 0.50001 0.499997 0.500001 0.5 
0.5 0.500001 0.499997 0.500015 0.499946 0.500208 0.499196 0.504775 0.500658 
0.499755 0.5 
