# vtk DataFile Version 3.0
vtk output
ASCII
DATASET POLYDATA
POINTS 357 float
0 0 0 1.07828 0.181103 0.599609 2.19558 0.647102 0.900391 
3.19066 1.2887 1.2998 3.85582 1.7635 2.2002 4.65385 2.0839 2.90039 
5.43671 2.3738 3.40039 6.1838 2.5974 3.90039 6.90601 2.807 4.2998 
7.63865 2.9891 4.7002 8.38484 3.1238 4.90039 9.14748 3.2053 5.09961 
9.91745 3.2372 5.09961 10.6949 3.225 5.09961 11.4749 3.1839 5.09961 
12.2568 3.1225 5.09961 13.038 3.0429 5 13.8144 2.9342 4.90039 
14.5717 2.7678 4.7002 15.2256 2.4439 4.2998 15.7 2.03 3.7998 
16.1636 1.6113 3.2998 16.6319 1.183 2.7998 17.2783 0.870403 2.2998 
18 0.634201 2 18.7584 0.4244 1.7002 19.5178 0.206501 1.2998 
20.2421 -0.0684967 0.900391 20.8417 -0.541199 0.5 21.3436 -1.0417 0.200195 
21.7992 -1.4912 0 22.2605 -1.8624 -0.299805 22.6679 -2.1853 -0.599609 
23.077 -2.4987 -0.900391 23.4755 -2.7884 -1.2002 23.8791 -3.0556 -1.5 
24.2916 -3.3018 -1.7998 24.7048 -3.5311 -2 25.1136 -3.7393 -2.2002 
25.5176 -3.9193 -2.5 25.9188 -4.0868 -2.7002 26.3268 -4.2702 -3 
26.7456 -4.4805 -3.2998 27.1698 -4.707 -3.59961 27.6053 -4.9542 -4 
28.0392 -5.2058 -4.2998 28.4374 -5.4448 -4.7998 28.9069 -5.7144 -5.09961 
29.4058 -6.0429 -5.2998 29.8842 -6.4324 -5.40039 30.3261 -6.8758 -5.5 
30.7456 -7.3395 -5.59961 31.1566 -7.8067 -5.7002 31.5668 -8.2719 -5.90039 
31.9803 -8.7343 -6 32.3945 -9.1979 -6.09961 32.7999 -9.6725 -6.2002 
33.1949 -10.1638 -6.2002 33.5858 -10.6742 -6.2998 33.9782 -11.2051 -6.2998 
34.3801 -11.7509 -6.40039 34.8072 -12.2961 -6.40039 35.2536 -12.8254 -6.5 
35.7046 -13.3465 -6.5 36.1284 -13.8671 -6.5 36.5213 -14.3857 -6.5 
36.8788 -14.9017 -6.5 37.2043 -15.4224 -6.59961 37.5093 -15.9464 -6.59961 
37.8017 -16.4754 -6.7002 38.0897 -17.0149 -6.7998 38.3787 -17.5716 -6.7998 
38.6773 -18.1383 -6.90039 38.9621 -18.7131 -6.90039 39.2364 -19.2445 -7 
39.5036 -19.7157 -7.09961 39.4151 -20.4268 -7.2998 39.4258 -20.9556 -7.5 
39.442 -21.4791 -7.59961 39.4565 -22.006 -7.7998 39.4697 -22.5431 -8 
39.4879 -23.0871 -8.2002 39.5345 -23.6177 -8.2998 39.6859 -24.121 -8.40039 
39.9028 -24.5716 -8.40039 40.0725 -25.006 -8.40039 40.207 -25.412 -8.5 
40.3227 -25.8214 -8.59961 40.423 -26.2327 -8.7002 40.5182 -26.653 -8.7998 
40.5992 -27.0904 -8.90039 40.6814 -27.5456 -9 40.7668 -28.0095 -9 
40.8531 -28.4715 -9.09961 40.9239 -28.9233 -9.2002 40.9681 -29.3658 -9.2998 
40.9985 -29.8071 -9.40039 41.0148 -30.2432 -9.5 41.03 -30.6934 -9.59961 
41.0443 -31.1546 -9.7002 41.0546 -31.6132 -9.7998 41.0644 -32.0668 -10 
41.0961 -32.4938 -10.2002 41.1275 -32.8996 -10.4004 41.1646 -33.2832 -10.5996 
41.1856 -33.6781 -10.7998 41.1973 -34.0938 -11.0996 41.2078 -34.5226 -11.2998 
41.222 -34.9501 -11.5 41.2315 -35.3665 -11.7002 41.2304 -35.7702 -12 
41.2238 -36.1658 -12.2998 41.218 -36.5931 -12.5996 41.2315 -37.0607 -13 
41.2752 -37.5738 -13.4004 41.3769 -38.1536 -13.7998 41.4501 -38.7806 -14.2998 
41.5535 -39.4507 -14.9004 41.6323 -40.1007 -15.7002 41.727 -40.8621 -16.5 
41.8291 -41.6124 -17.5 42.2551 -42.4127 -18.2998 42.5601 -43.0163 -19.2002 
42.917 -43.5184 -20 43.1655 -43.9705 -20.7002 43.4322 -44.3484 -21.4004 
43.7125 -44.6396 -22 43.8473 -44.9589 -22.5996 43.924 -45.2509 -23.0996 
43.924 -45.498 -23.5996 43.927 -45.755 -24 43.9789 -46.0572 -24.2998 
44.0492 -46.3352 -24.5 44.0872 -46.6152 -24.7998 44.1017 -46.8873 -25 
44.109 -47.1488 -25.2002 44.1165 -47.4043 -25.4004 44.1322 -47.6607 -25.5996 
44.1642 -47.9135 -25.9004 44.2339 -48.1535 -26.0996 44.2999 -48.3809 -26.2998 
44.3719 -48.5949 -26.5 44.4496 -48.8092 -26.7002 44.5203 -48.9828 -26.9004 
44.553 -49.1831 -27.2002 44.5628 -49.3883 -27.4004 44.5069 -49.6043 -27.5996 
44.4569 -49.7947 -27.9004 44.4024 -49.9852 -28.0996 44.2801 -50.1785 -28.2998 
44.1152 -50.3494 -28.5996 43.9494 -50.5055 -28.7998 43.7285 -50.6494 -29.0996 
43.4966 -50.7804 -29.2998 43.2399 -50.9078 -29.5996 42.9627 -51.0238 -29.7998 
42.6735 -51.1274 -30.0996 42.4024 -51.2234 -30.4004 42.149 -51.3058 -30.5996 
41.9341 -51.3889 -30.9004 41.7343 -51.4706 -31.2002 41.5499 -51.5471 -31.5996 
41.3903 -51.6385 -31.9004 41.2514 -51.7431 -32.2002 41.1292 -51.8609 -32.5 
41.0084 -51.9996 -32.9004 40.9002 -52.1302 -33.2002 40.8074 -52.2906 -33.5996 
40.7248 -52.4264 -34 40.6509 -52.5835 -34.2998 40.5779 -52.759 -34.7002 
40.5033 -52.9495 -35 40.4275 -53.1584 -35.4004 40.3423 -53.3906 -35.7002 
40.2562 -53.6682 -36 40.1912 -53.9664 -36.2998 40.1364 -54.253 -36.5996 
40.074 -54.5628 -36.9004 40.0177 -54.8176 -37.0996 39.9131 -55.0572 -37.2998 
39.7924 -55.2775 -37.5996 39.6707 -55.4715 -37.9004 39.5863 -55.6839 -38.0996 
39.5408 -55.9068 -38.4004 39.5224 -56.1186 -38.7002 39.493 -56.3291 -38.9004 
39.4451 -56.5222 -39.2002 39.3929 -56.7162 -39.4004 39.3293 -56.9167 -39.5996 
39.2461 -57.1231 -39.9004 39.1613 -57.3288 -40.0996 39.0733 -57.5336 -40.4004 
38.9874 -57.7366 -40.5996 38.9082 -57.9353 -40.9004 38.8375 -58.1253 -41.0996 
38.7631 -58.2969 -41.4004 38.6512 -58.4829 -41.5996 38.5266 -58.6716 -41.9004 
38.3952 -58.8552 -42.2002 38.2697 -59.036 -42.4004 38.174 -59.2171 -42.7002 
38.0873 -59.4134 -43 38.0027 -59.6061 -43.2998 37.8921 -59.7861 -43.5 
37.7766 -59.9468 -43.7998 37.6335 -60.1316 -44.0996 37.4898 -60.291 -44.2998 
37.3517 -60.434 -44.5996 37.2312 -60.5597 -44.9004 37.1108 -60.6854 -45.2002 
37.012 -60.7779 -45.5 36.9227 -60.8734 -45.7998 36.8377 -60.9593 -46.2002 
36.7625 -61.0505 -46.5 36.6894 -61.1366 -46.7998 36.6264 -61.2251 -47.0996 
36.5653 -61.3083 -47.4004 36.52 -61.3917 -47.7002 36.4949 -61.4825 -48 
36.4737 -61.5538 -48.2998 36.457 -61.6334 -48.7002 36.4356 -61.7158 -49 
36.4198 -61.8209 -49.2998 36.4175 -61.9133 -49.5996 36.4492 -61.9853 -49.9004 
36.5005 -62.0398 -50.2002 36.5441 -62.0716 -50.5996 36.577 -62.1026 -50.9004 
36.6239 -62.1953 -51.2998 36.6936 -62.2631 -51.5996 36.7743 -62.3533 -51.9004 
36.8882 -62.4334 -52.2002 37.0596 -62.4612 -52.5 37.2606 -62.4583 -52.7002 
37.4786 -62.447 -52.9004 37.701 -62.4409 -53.0996 37.9346 -62.4433 -53.2998 
38.1683 -62.4423 -53.5 38.3997 -62.437 -53.7002 38.6567 -62.3903 -53.9004 
38.9281 -62.3101 -54 39.1958 -62.2237 -54.0996 39.4597 -62.1329 -54.2002 
39.7327 -62.0439 -54.4004 40.0261 -61.962 -54.5 40.3123 -61.8971 -54.5996 
40.5956 -61.8302 -54.7002 40.8792 -61.7697 -54.9004 41.1597 -61.7236 -55.0996 
41.4439 -61.6809 -55.2002 41.7231 -61.6681 -55.4004 41.9932 -61.6758 -55.7002 
42.2545 -61.6909 -55.9004 42.5134 -61.6985 -56.0996 42.7769 -61.6956 -56.2998 
43.017 -61.6935 -56.5996 43.1416 -61.6964 -57 39.9874 -19.8303 -7.2002 
40.3953 -19.6326 -7.2002 40.7435 -19.6906 -7.40039 41.0909 -19.7906 -7.5 
41.3657 -19.8872 -7.59961 41.618 -20.0064 -7.7998 41.8657 -20.1124 -7.90039 
42.1035 -20.2296 -7.90039 42.2917 -20.3921 -8 42.5051 -20.5148 -8 
42.7368 -20.6008 -8.09961 42.9767 -20.6455 -8.09961 43.2035 -20.5983 -8.2002 
43.4355 -20.5838 -8.2998 43.6488 -20.5636 -8.40039 43.8688 -20.5355 -8.5 
44.0998 -20.5329 -8.59961 44.3365 -20.5485 -8.7002 44.5712 -20.5667 -8.7998 
44.7894 -20.5705 -8.90039 45.0216 -20.5732 -9.09961 45.1688 -20.4821 -9.2998 
45.4627 -20.5652 -9.40039 45.7821 -20.6313 -9.5 46.08 -20.765 -9.59961 
46.3815 -20.8627 -9.7998 46.657 -21.0003 -9.90039 46.9267 -21.1396 -10.0996 
47.1841 -21.2901 -10.2998 47.4249 -21.4643 -10.4004 47.6614 -21.6513 -10.5996 
47.8799 -21.861 -10.7998 48.0891 -22.0583 -11 48.2792 -22.2878 -11.2002 
48.4424 -22.5088 -11.4004 48.5838 -22.7516 -11.5996 48.705 -22.9922 -11.7998 
48.8004 -23.2376 -12 48.867 -23.4987 -12.2002 48.9198 -23.755 -12.4004 
48.9657 -24.0376 -12.5996 49.0096 -24.3307 -12.7998 49.0544 -24.6565 -13 
49.0867 -25.017 -13.2998 49.1627 -25.4165 -13.5 49.2057 -25.8312 -13.7998 
49.2139 -26.2997 -14.2002 49.455 -26.707 -14.7002 49.3763 -27.3013 -15.0996 
49.357 -28.0484 -15.4004 49.3631 -28.9123 -15.7002 49.5601 -29.8556 -15.9004 
49.9002 -30.7266 -16.5 50.1826 -31.4792 -17.5 50.4426 -32.0721 -18.5 
50.6183 -32.5261 -19.5 51.0741 -33.3015 -20 51.5367 -33.9876 -20.2998 
51.9164 -34.5098 -20.7998 52.208 -34.95 -21.2998 52.4328 -35.3308 -21.7998 
52.6247 -35.7219 -22.2002 52.7978 -35.9219 -22.7002 52.955 -36.0877 -23.0996 
53.0951 -36.1956 -23.5 53.2542 -36.3093 -23.7998 53.4034 -36.4326 -24.0996 
53.5371 -36.5627 -24.4004 53.6739 -36.6909 -24.5996 53.8128 -36.8067 -24.9004 
53.9591 -36.9223 -25.0996 54.1096 -37.0407 -25.2998 54.2553 -37.1629 -25.5996 
54.3985 -37.2979 -25.7998 54.5426 -37.428 -26 54.6875 -37.568 -26.2002 
54.836 -37.7054 -26.4004 54.976 -37.8271 -26.5996 55.1143 -37.943 -26.7998 
55.2517 -38.0556 -27 55.3763 -38.1807 -27.2002 55.4761 -38.3343 -27.4004 
55.5725 -38.4839 -27.5 55.6202 -38.6589 -27.7002 55.6534 -38.8246 -27.9004 
55.674 -38.995 -28.0996 55.6993 -39.1798 -28.2998 55.8078 -39.2722 -28.5 
55.9121 -39.3746 -28.7002 56.0246 -39.4812 -28.9004 56.1247 -39.5881 -29.0996 
56.222 -39.7286 -29.2002 56.276 -39.8964 -29.4004 56.3503 -40.0455 -29.5996 
56.4144 -40.2062 -29.7998 56.4906 -40.366 -30 56.6007 -40.4466 -30.2002 
56.8137 -40.4473 -30.2998 56.9809 -40.5414 -30.5 57.1546 -40.6279 -30.5996 

LINES 3 362
76 0 1 2 3 4 5 6 7 8 9 10 11 12 13 14 15 16 17 18 19 20 21 22 23 24 25 26 27 28 29 30 31 32 33 34 35 36 37 38 39 40 41 42 43 44 45 46 47 48 49 50 51 52 53 54 55 56 57 58 59 60 61 62 63 64 65 66 67 68 69 70 71 72 73 74 75 
182 75 76 77 78 79 80 81 82 83 84 85 86 87 88 89 90 91 92 93 94 95 96 97 98 99 100 101 102 103 104 105 106 107 108 109 110 111 112 113 114 115 116 117 118 119 120 121 122 123 124 125 126 127 128 129 130 131 132 133 134 135 136 137 138 139 140 141 142 143 144 145 146 147 148 149 150 151 152 153 154 155 156 157 158 159 160 161 162 163 164 165 166 167 168 169 170 171 172 173 174 175 176 177 178 179 180 181 182 183 184 185 186 187 188 189 190 191 192 193 194 195 196 197 198 199 200 201 202 203 204 205 206 207 208 209 210 211 212 213 214 215 216 217 218 219 220 221 222 223 224 225 226 227 228 229 230 231 232 233 234 235 236 237 238 239 240 241 242 243 244 245 246 247 248 249 250 251 252 253 254 255 256 
101 75 257 258 259 260 261 262 263 264 265 266 267 268 269 270 271 272 273 274 275 276 277 278 279 280 281 282 283 284 285 286 287 288 289 290 291 292 293 294 295 296 297 298 299 300 301 302 303 304 305 306 307 308 309 310 311 312 313 314 315 316 317 318 319 320 321 322 323 324 325 326 327 328 329 330 331 332 333 334 335 336 337 338 339 340 341 342 343 344 345 346 347 348 349 350 351 352 353 354 355 356 

POINT_DATA 357
SCALARS radii double
LOOKUP_TABLE default
2.56268 2.53395 2.51407 2.51115 2.34228 2.1968 2.02075 1.83793 1.72078 
1.64434 1.59274 1.56363 1.54919 1.55506 1.56391 1.572 1.57619 1.58029 
1.59742 1.6508 1.62291 1.62053 1.65293 1.65423 1.67039 1.71566 1.75292 
1.76205 1.66763 1.522 1.38906 1.31001 1.23828 1.19559 1.1455 1.10842 
1.07844 1.05123 1.03008 1.02165 1.02595 1.05614 1.10849 1.14151 1.19861 
1.24714 1.25783 1.27044 1.26722 1.25532 1.26562 1.26883 1.26913 1.26558 
1.2603 1.25744 1.25918 1.26928 1.29122 1.32402 1.35855 1.38977 1.38922 
1.3799 1.34275 1.30128 1.25608 1.23147 1.21708 1.21624 1.2334 1.26238 
1.28603 1.28843 1.2099 1.09991 1.16262 1.09521 1.09521 1.10194 1.13819 
1.15379 1.10892 1.05503 1.00127 0.93887 0.877795 0.861689 0.858929 0.884371 
0.917115 0.941823 0.953227 0.949172 0.929084 0.911725 0.904598 0.904598 0.931587 
0.943098 0.94437 0.949879 0.934016 0.918512 0.905055 0.927426 0.951113 0.96348 
0.961772 0.956611 0.957521 0.966555 1.06541 1.18378 1.31532 1.46146 1.62385 
1.80428 2.00475 2.2275 2.475 2.2275 2.00475 1.80428 1.62385 1.46721 
1.32049 1.18844 1.08322 0.974899 0.877409 0.789668 0.727275 0.701837 0.688323 
0.671995 0.660138 0.651219 0.642655 0.637433 0.616349 0.611579 0.611579 0.631296 
0.632001 0.625597 0.612182 0.601486 0.658622 0.686321 0.695316 0.736492 0.742396 
0.754945 0.773345 0.789333 0.787068 0.778729 0.759922 0.746964 0.739192 0.738928 
0.744039 0.753255 0.767874 0.777032 0.806008 0.806008 0.810059 0.811116 0.815711 
0.829027 0.850531 0.86709 0.852719 0.813579 0.781703 0.713325 0.706809 0.707534 
0.709593 0.708038 0.703547 0.670516 0.648762 0.633898 0.628774 0.636992 0.646847 
0.661361 0.668387 0.664511 0.654733 0.647771 0.655342 0.68666 0.686913 0.679175 
0.676232 0.693787 0.709727 0.709727 0.707251 0.683367 0.683367 0.666156 0.669968 
0.690549 0.690549 0.690549 0.699384 0.699384 0.695487 0.665498 0.65106 0.64295 
0.641784 0.643958 0.643958 0.645898 0.63434 0.63434 0.650934 0.681479 0.708415 
0.697278 0.688216 0.688216 0.688216 0.668246 0.660375 0.630471 0.623421 0.62188 
0.615549 0.614185 0.617162 0.618243 0.618356 0.621484 0.593021 0.599514 0.616779 
0.644235 0.646737 0.643457 0.65281 0.666589 0.679291 0.687963 0.690601 0.690732 
0.691482 0.695681 0.715736 0.743879 0.771604 0.999916 0.909014 0.826377 0.751251 
0.682956 0.620869 0.566865 0.549909 0.500738 0.5 0.5 0.5 0.5 
0.5 0.5 0.5 0.5 0.5 0.5 0.5 0.539953 0.599948 
0.654334 0.672995 0.696893 0.695742 0.691478 0.692098 0.693239 0.694308 0.703263 
0.704447 0.706305 0.706305 0.706744 0.68932 0.675776 0.657484 0.662999 0.680226 
0.687982 0.702869 0.776681 0.862979 0.958866 1.06541 1.18378 1.31532 1.46146 
1.62385 1.80428 2.00475 2.2275 2.475 2.2275 2.00475 1.80428 1.62385 
1.46146 1.31532 1.18378 1.06541 0.958866 0.862979 0.776681 0.699013 0.643147 
0.619167 0.604076 0.597602 0.588899 0.58009 0.587737 0.587737 0.585972 0.577273 
0.545265 0.535754 0.528809 0.518423 0.510155 0.50051 0.5 0.5 0.5 
0.5 0.5 0.5 0.5 0.5 0.5 0.5 0.5 0.5 
0.5 0.5 0.5053 0.5 0.5 0.5 
