# vtk DataFile Version 3.0
vtk output
ASCII
DATASET POLYDATA
POINTS 3601 float
0 0 0 -9.91821e-05 0.0999999 0 -0.000400543 0.199999 0 
-0.000900269 0.299998 0 -0.00159836 0.399996 0 -0.00249863 0.499992 0 
-0.00360107 0.599986 0 -0.00489807 0.699977 0 -0.00640106 0.799966 0 
-0.0080986 0.899951 0 -0.00999832 0.999933 0 -0.0121002 1.09991 0 
-0.0144005 1.19988 0 -0.0168991 1.29985 0 -0.0195999 1.39982 0 
-0.0224991 1.49978 0 -0.0255966 1.59973 0 -0.0288963 1.69967 0 
-0.0323982 1.79961 0 -0.0360947 1.89954 0 -0.0399933 1.99947 0 
-0.0440941 2.09938 0 -0.0483932 2.19929 0 -0.0528908 2.29919 0 
-0.0575905 2.39908 0 -0.0624886 2.49896 0 -0.067585 2.59883 0 
-0.0728836 2.69869 0 -0.0783806 2.79854 0 -0.0840759 2.89837 0 
-0.0899734 2.9982 0 -0.0960693 3.09801 0 -0.102364 3.19782 0 
-0.10886 3.2976 0 -0.115555 3.39738 0 -0.122452 3.49714 0 
-0.129543 3.59689 0 -0.136837 3.69662 0 -0.144329 3.79634 0 
-0.152023 3.89605 0 -0.159916 3.99573 0 -0.168007 4.09541 0 
-0.176296 4.19506 0 -0.184788 4.2947 0 -0.193474 4.39432 0 
-0.202362 4.49393 0 -0.211452 4.59351 0 -0.220737 4.69308 0 
-0.230225 4.79263 0 -0.239906 4.89216 0 -0.24979 4.99167 0 
-0.259876 5.09116 0 -0.270157 5.19063 0 -0.280636 5.29008 0 
-0.291317 5.38951 0 -0.302197 5.48891 0 -0.313271 5.5883 0 
-0.324547 5.68766 0 -0.336021 5.787 0 -0.347694 5.88632 0 
-0.35957 5.98561 0 -0.371639 6.08488 0 -0.383907 6.18412 0 
-0.396374 6.28334 0 -0.409042 6.38254 0 -0.421906 6.48171 0 
-0.434967 6.58085 0 -0.448227 6.67997 0 -0.461689 6.77906 0 
-0.475346 6.87812 0 -0.489201 6.97716 0 -0.503254 7.07616 0 
-0.517506 7.17514 0 -0.531956 7.27409 0 -0.5466 7.37301 0 
-0.561447 7.47191 0 -0.576488 7.57077 0 -0.591728 7.6696 0 
-0.607166 7.7684 0 -0.622803 7.86717 0 -0.638638 7.96591 0 
-0.654667 8.06462 0 -0.670895 8.16329 0 -0.687321 8.26193 0 
-0.703941 8.36054 0 -0.72076 8.45912 0 -0.737778 8.55766 0 
-0.754993 8.65617 0 -0.772404 8.75464 0 -0.790012 8.85308 0 
-0.807816 8.95148 0 -0.825817 9.04984 0 -0.844013 9.14818 0 
-0.862408 9.24647 0 -0.881001 9.34473 0 -0.899788 9.44294 0 
-0.918774 9.54113 0 -0.937954 9.63927 0 -0.957329 9.73737 0 
-0.976902 9.83544 0 -0.99667 9.93347 0 -1.01664 10.0315 0 
-1.0368 10.1294 0 -1.05715 10.2273 0 -1.07771 10.3252 0 
-1.09845 10.423 0 -1.1194 10.5208 0 -1.14054 10.6185 0 
-1.16187 10.7162 0 -1.1834 10.8139 0 -1.20513 10.9115 0 
-1.22705 11.009 0 -1.24916 11.1066 0 -1.27147 11.2041 0 
-1.29398 11.3015 0 -1.31668 11.3989 0 -1.33958 11.4962 0 
-1.36266 11.5935 0 -1.38595 11.6908 0 -1.40943 11.788 0 
-1.4331 11.8851 0 -1.45697 11.9822 0 -1.48103 12.0793 0 
-1.50529 12.1763 0 -1.52974 12.2733 0 -1.55438 12.3702 0 
-1.57922 12.4671 0 -1.60425 12.5639 0 -1.62947 12.6606 0 
-1.65489 12.7574 0 -1.6805 12.854 0 -1.70631 12.9506 0 
-1.7323 13.0472 0 -1.7585 13.1437 0 -1.78488 13.2402 0 
-1.81145 13.3366 0 -1.83823 13.4329 0 -1.86519 13.5292 0 
-1.89234 13.6255 0 -1.91969 13.7216 0 -1.94723 13.8178 0 
-1.97496 13.9139 0 -2.00288 14.0099 0 -2.031 14.1058 0 
-2.05931 14.2018 0 -2.08781 14.2976 0 -2.1165 14.3934 0 
-2.14538 14.4891 0 -2.17445 14.5848 0 -2.20372 14.6804 0 
-2.23318 14.776 0 -2.26282 14.8715 0 -2.29266 14.967 0 
-2.32269 15.0623 0 -2.35291 15.1577 0 -2.38332 15.2529 0 
-2.41392 15.3481 0 -2.44471 15.4433 0 -2.4757 15.5384 0 
-2.50687 15.6334 0 -2.53823 15.7283 0 -2.56978 15.8232 0 
-2.60152 15.918 0 -2.63345 16.0128 0 -2.66557 16.1075 0 
-2.69788 16.2022 0 -2.73038 16.2967 0 -2.76307 16.3912 0 
-2.79595 16.4857 0 -2.82901 16.58 0 -2.86227 16.6744 0 
-2.89571 16.7686 0 -2.92934 16.8628 0 -2.96316 16.9569 0 
-2.99717 17.0509 0 -3.03136 17.1449 0 -3.06575 17.2388 0 
-3.10032 17.3326 0 -3.13508 17.4264 0 -3.17002 17.5201 0 
-3.20516 17.6137 0 -3.24048 17.7073 0 -3.27599 17.8007 0 
-3.31168 17.8942 0 -3.34756 17.9875 0 -3.38363 18.0808 0 
-3.41989 18.174 0 -3.45633 18.2671 0 -3.49295 18.3601 0 
-3.52977 18.4531 0 -3.56677 18.546 0 -3.60395 18.6389 0 
-3.64132 18.7316 0 -3.67888 18.8243 0 -3.71662 18.9169 0 
-3.75455 19.0094 0 -3.79266 19.1019 0 -3.83096 19.1943 0 
-3.86943 19.2866 0 -3.9081 19.3788 0 -3.94695 19.4709 0 
-3.98077 19.5506 0.05 -4.01477 19.6303 0.0999999 -4.04895 19.7099 0.15 
-4.08332 19.7894 0.199999 -4.11787 19.8688 0.249998 -4.15261 19.9481 0.299996 
-4.18752 20.0273 0.349994 -4.22263 20.1065 0.399991 -4.25791 20.1856 0.449988 
-4.29337 20.2646 0.499983 -4.32902 20.3435 0.549978 -4.36485 20.4224 0.599971 
-4.40086 20.5011 0.649963 -4.43705 20.5798 0.699954 -4.47343 20.6584 0.749944 
-4.50998 20.7369 0.799932 -4.54671 20.8153 0.849918 -4.58363 20.8936 0.899903 
-4.62073 20.9719 0.949886 -4.658 21.05 0.999867 -4.69546 21.1281 1.04985 
-4.7331 21.2061 1.09982 -4.77091 21.284 1.1498 -4.80891 21.3618 1.19977 
-4.84708 21.4395 1.24974 -4.88543 21.5171 1.29971 -4.92397 21.5947 1.34967 
-4.96267 21.6721 1.39963 -5.00156 21.7495 1.44959 -5.04062 21.8267 1.49955 
-5.07987 21.9039 1.5495 -5.11929 21.981 1.59945 -5.15888 22.058 1.6494 
-5.19865 22.1349 1.69935 -5.23861 22.2117 1.74929 -5.27873 22.2884 1.79922 
-5.31903 22.365 1.84916 -5.35951 22.4415 1.89909 -5.40016 22.5179 1.94901 
-5.44099 22.5942 1.99893 -5.48199 22.6705 2.04885 -5.52317 22.7466 2.09877 
-5.56453 22.8226 2.14868 -5.60605 22.8985 2.19858 -5.64775 22.9744 2.24848 
-5.68962 23.0501 2.29838 -5.73167 23.1258 2.34827 -5.7739 23.2013 2.39816 
-5.81629 23.2767 2.44804 -5.85885 23.3521 2.49792 -5.90159 23.4273 2.54779 
-5.9445 23.5025 2.59766 -5.98758 23.5775 2.64752 -6.03084 23.6524 2.69738 
-6.07426 23.7272 2.74723 -6.11786 23.802 2.79708 -6.16162 23.8766 2.84692 
-6.20556 23.9511 2.89675 -6.24967 24.0255 2.94658 -6.29395 24.0998 2.99641 
-6.33839 24.174 3.04622 -6.38301 24.2481 3.09603 -6.42779 24.3221 3.14584 
-6.47274 24.396 3.19564 -6.51786 24.4698 3.24543 -6.56315 24.5435 3.29522 
-6.60861 24.617 3.345 -6.65424 24.6905 3.39477 -6.70003 24.7638 3.44454 
-6.74599 24.8371 3.49429 -6.79211 24.9102 3.54405 -6.8384 24.9832 3.59379 
-6.88486 25.0561 3.64353 -6.93148 25.1289 3.69326 -6.97827 25.2016 3.74298 
-7.02522 25.2742 3.7927 -7.07234 25.3466 3.84241 -7.11963 25.419 3.89211 
-7.16707 25.4912 3.9418 -7.21468 25.5633 3.99149 -7.26246 25.6354 4.04117 
-7.31039 25.7072 4.09084 -7.35849 25.779 4.1405 -7.40676 25.8507 4.19015 
-7.45518 25.9222 4.23979 -7.50377 25.9937 4.28943 -7.55252 26.065 4.33906 
-7.60143 26.1362 4.38868 -7.6505 26.2073 4.43829 -7.69973 26.2782 4.48789 
-7.74912 26.3491 4.53748 -7.79868 26.4198 4.58707 -7.84839 26.4904 4.63664 
-7.89826 26.5609 4.68621 -7.94829 26.6313 4.73576 -7.99848 26.7016 4.78531 
-8.04883 26.7717 4.83485 -8.09933 26.8417 4.88437 -8.14999 26.9116 4.93389 
-8.20082 26.9814 4.9834 -8.25179 27.051 5.0329 -8.30293 27.1205 5.08239 
-8.35422 27.1899 5.13187 -8.40567 27.2592 5.18133 -8.45727 27.3284 5.23079 
-8.50903 27.3974 5.28024 -8.56094 27.4663 5.32968 -8.61301 27.5351 5.3791 
-8.66523 27.6038 5.42852 -8.7176 27.6723 5.47792 -8.77013 27.7407 5.52732 
-8.82281 27.809 5.5767 -8.87565 27.8771 5.62607 -8.92864 27.9452 5.67544 
-8.98178 28.0131 5.72479 -9.03507 28.0809 5.77412 -9.08852 28.1485 5.82345 
-9.14211 28.216 5.87277 -9.19586 28.2834 5.92207 -9.24975 28.3507 5.97136 
-9.3038 28.4178 6.02065 -9.35799 28.4848 6.06991 -9.41234 28.5517 6.11917 
-9.46684 28.6184 6.16842 -9.52148 28.685 6.21765 -9.57627 28.7515 6.26687 
-9.63121 28.8178 6.31608 -9.6863 28.8841 6.36527 -9.74153 28.9501 6.41446 
-9.79691 29.0161 6.46363 -9.85244 29.0819 6.51279 -9.90812 29.1476 6.56193 
-9.96394 29.2131 6.61106 -10.0199 29.2785 6.66018 -10.076 29.3438 6.70929 
-10.1323 29.409 6.75838 -10.1887 29.474 6.80746 -10.2452 29.5389 6.85653 
-10.3019 29.6036 6.90558 -10.3587 29.6682 6.95462 -10.4157 29.7327 7.00365 
-10.4728 29.797 7.05266 -10.5301 29.8612 7.10166 -10.5875 29.9252 7.15064 
-10.645 29.9892 7.19961 -10.7027 30.0529 7.24857 -10.7605 30.1166 7.29751 
-10.8185 30.1801 7.34644 -10.8766 30.2434 7.39535 -10.9348 30.3067 7.44425 
-10.9932 30.3697 7.49314 -11.0517 30.4327 7.54201 -11.1104 30.4955 7.59086 
-11.1691 30.5581 7.6397 -11.2281 30.6206 7.68853 -11.2871 30.683 7.73734 
-11.3463 30.7453 7.78613 -11.4057 30.8074 7.83491 -11.4652 30.8693 7.88368 
-11.5248 30.9311 7.93243 -11.5845 30.9928 7.98116 -11.6444 31.0543 8.02988 
-11.7044 31.1157 8.07858 -11.7646 31.1769 8.12727 -11.8248 31.238 8.17594 
-11.8853 31.2989 8.22459 -11.9458 31.3597 8.27323 -12.0065 31.4204 8.32185 
-12.0673 31.4809 8.37046 -12.1282 31.5412 8.41905 -12.1893 31.6014 8.46763 
-12.2505 31.6615 8.51618 -12.3118 31.7214 8.56473 -12.3733 31.7812 8.61325 
-12.4349 31.8408 8.66176 -12.4966 31.9003 8.71025 -12.5585 31.9596 8.75872 
-12.6205 32.0188 8.80718 -12.6826 32.0778 8.85562 -12.7448 32.1367 8.90404 
-12.8072 32.1954 8.95245 -12.8696 32.254 9.00084 -12.9323 32.3124 9.04921 
-12.995 32.3707 9.09756 -13.0578 32.4288 9.1459 -13.1208 32.4868 9.19422 
-13.184 32.5447 9.24252 -13.2472 32.6023 9.2908 -13.3105 32.6599 9.33906 
-13.374 32.7172 9.38731 -13.4376 32.7744 9.43554 -13.5014 32.8315 9.48375 
-13.5652 32.8884 9.53194 -13.6292 32.9452 9.58011 -13.6933 33.0018 9.62827 
-13.7575 33.0582 9.67641 -13.8218 33.1145 9.72452 -13.8863 33.1707 9.77262 
-13.9508 33.2267 9.8207 -14.0155 33.2825 9.86877 -14.0465 33.2884 9.96156 
-14.0777 33.2941 10.0543 -14.1089 33.2997 10.1469 -14.1403 33.3052 10.2395 
-14.1718 33.3105 10.332 -14.2034 33.3157 10.4244 -14.2351 33.3207 10.5168 
-14.2669 33.3256 10.6091 -14.2989 33.3304 10.7013 -14.331 33.335 10.7934 
-14.3632 33.3395 10.8855 -14.3955 33.3439 10.9775 -14.4279 33.3481 11.0693 
-14.4604 33.3522 11.1612 -14.4931 33.3561 11.2529 -14.5258 33.3599 11.3446 
-14.5587 33.3636 11.4361 -14.5917 33.3671 11.5276 -14.6248 33.3705 11.6191 
-14.658 33.3738 11.7104 -14.6913 33.3769 11.8017 -14.7247 33.3799 11.8928 
-14.7583 33.3827 11.9839 -14.7919 33.3855 12.0749 -14.8257 33.388 12.1658 
-14.8596 33.3905 12.2567 -14.8936 33.3928 12.3474 -14.9276 33.395 12.4381 
-14.9618 33.397 12.5286 -14.9961 33.3989 12.6191 -15.0305 33.4007 12.7095 
-15.0651 33.4023 12.7998 -15.0997 33.4038 12.89 -15.1344 33.4052 12.9802 
[...]
POINT_DATA 3601
SCALARS radiiScalars double
LOOKUP_TABLE default
2.5 2.49691 2.49382 2.49073 2.48765 2.48457 2.4815 2.47843 2.47536 
2.4723 2.46924 2.46618 2.46313 2.46009 2.45704 2.454 2.45097 2.44793 
2.4449 2.44188 2.43886 2.43584 2.43283 2.42982 2.42681 2.42381 2.42081 
2.41781 2.41482 2.41184 2.40885 2.40587 2.40289 2.39992 2.39695 2.39399 
2.39102 2.38807 2.38511 2.38216 2.37921 2.37627 2.37333 2.37039 2.36746 
2.36453 2.3616 2.35868 2.35576 2.35285 2.34994 2.34703 2.34413 2.34123 
2.33833 2.33544 2.33255 2.32966 2.32678 2.3239 2.32103 2.31815 2.31529 
2.31242 2.30956 2.3067 2.30385 2.301 2.29815 2.29531 2.29247 2.28963 
2.2868 2.28397 2.28114 2.27832 2.2755 2.27269 2.26987 2.26707 2.26426 
2.26146 2.25866 2.25587 2.25308 2.25029 2.2475 2.24472 2.24195 2.23917 
2.2364 2.23363 2.23087 2.22811 2.22535 2.2226 2.21985 2.2171 2.21436 
2.21162 2.20888 2.20615 2.20342 2.2007 2.19797 2.19525 2.19254 2.18982 
2.18712 2.18441 2.18171 2.17901 2.17631 2.17362 2.17093 2.16824 2.16556 
2.16288 2.16021 2.15753 2.15486 2.1522 2.14953 2.14687 2.14422 2.14157 
2.13892 2.13627 2.13363 2.13099 2.12835 2.12572 2.12309 2.12046 2.11784 
2.11522 2.1126 2.10998 2.10737 2.10477 2.10216 2.09956 2.09696 2.09437 
2.09178 2.08919 2.08661 2.08402 2.08145 2.07887 2.0763 2.07373 2.07116 
2.0686 2.06604 2.06348 2.06093 2.05838 2.05584 2.05329 2.05075 2.04821 
2.04568 2.04315 2.04062 2.0381 2.03557 2.03306 2.03054 2.02803 2.02552 
2.02301 2.02051 2.01801 2.01551 2.01302 2.01053 2.00804 2.00556 2.00308 
2.0006 1.99812 1.99565 1.99318 1.99071 1.98825 1.98579 1.98333 1.98088 
1.97843 1.97598 1.97354 1.97109 1.96866 1.96622 1.96379 1.96136 1.95893 
1.95651 1.95409 1.95167 1.94788 1.94409 1.94031 1.93654 1.93278 1.92902 
1.92527 1.92153 1.91779 1.91407 1.91035 1.90663 1.90293 1.89923 1.89554 
1.89185 1.88818 1.88451 1.88084 1.87719 1.87354 1.8699 1.86626 1.86264 
1.85902 1.8554 1.8518 1.8482 1.84461 1.84102 1.83744 1.83387 1.83031 
1.82675 1.8232 1.81966 1.81612 1.81259 1.80907 1.80555 1.80204 1.79854 
1.79504 1.79156 1.78807 1.7846 1.78113 1.77767 1.77421 1.77076 1.76732 
1.76389 1.76046 1.75704 1.75362 1.75021 1.74681 1.74342 1.74003 1.73665 
1.73327 1.7299 1.72654 1.72319 1.71984 1.71649 1.71316 1.70983 1.7065 
1.70319 1.69988 1.69657 1.69328 1.68999 1.6867 1.68342 1.68015 1.67688 
1.67363 1.67037 1.66713 1.66389 1.66065 1.65742 1.6542 1.65099 1.64778 
1.64458 1.64138 1.63819 1.63501 1.63183 1.62866 1.62549 1.62233 1.61918 
1.61603 1.61289 1.60976 1.60663 1.60351 1.60039 1.59728 1.59417 1.59108 
1.58798 1.5849 1.58182 1.57874 1.57567 1.57261 1.56955 1.5665 1.56346 
1.56042 1.55739 1.55436 1.55134 1.54832 1.54532 1.54231 1.53931 1.53632 
1.53334 1.53036 1.52738 1.52441 1.52145 1.51849 1.51554 1.5126 1.50966 
1.50672 1.50379 1.50087 1.49795 1.49504 1.49214 1.48924 1.48634 1.48345 
1.48057 1.47769 1.47482 1.47195 1.46909 1.46624 1.46339 1.46054 1.45771 
1.45487 1.45204 1.44922 1.44641 1.44359 1.44079 1.43799 1.43519 1.4324 
1.42962 1.42684 1.42407 1.4213 1.41854 1.41578 1.41303 1.41028 1.40754 
1.40481 1.40208 1.39935 1.39663 1.39392 1.39121 1.3885 1.38581 1.38311 
1.38042 1.37774 1.37506 1.37239 1.36972 1.36706 1.3644 1.36175 1.35911 
1.35646 1.35383 1.3512 1.34857 1.34595 1.34333 1.34072 1.33812 1.33552 
1.33292 1.33033 1.32774 1.32516 1.32259 1.32002 1.31745 1.31489 1.31234 
1.30978 1.30724 1.3047 1.30216 1.29963 1.29711 1.29458 1.29207 1.28956 
1.28705 1.28455 1.28205 1.27956 1.27707 1.27459 1.27211 1.26964 1.26717 
1.26471 1.26225 1.2598 1.25735 1.25491 1.25247 1.25003 1.24761 1.24518 
1.24276 1.24034 1.23793 1.23553 1.23313 1.23073 1.22834 1.22595 1.22357 
1.22119 1.21882 1.21645 1.21408 1.21172 1.20937 1.20702 1.20467 1.20233 
1.19999 1.19766 1.19533 1.19301 1.19069 1.18838 1.18607 1.18376 1.18146 
1.17917 1.17687 1.17459 1.1723 1.17003 1.16775 1.16548 1.16322 1.16096 
1.1587 1.15645 1.1542 1.15196 1.14972 1.14748 1.14525 1.14303 1.1408 
1.13859 1.13637 1.13417 1.13196 1.12976 1.12757 1.12537 1.12319 1.121 
1.11883 1.11665 1.11448 1.11231 1.11015 1.10799 1.10584 1.10369 1.10155 
1.09941 1.09727 1.09514 1.09301 1.09088 1.08876 1.08665 1.08454 1.08243 
1.08032 1.07822 1.07613 1.07404 1.07195 1.06987 1.06779 1.06571 1.06364 
1.06157 1.05951 1.05745 1.05539 1.05334 1.0513 1.04925 1.04721 1.04518 
1.04315 1.04112 1.0391 1.03708 1.03506 1.03305 1.03104 1.02904 1.02704 
1.02504 1.02305 1.02106 1.01908 1.0171 1.01512 1.01315 1.01118 1.00921 
1.00725 1.00529 1.00334 1.00139 0.999442 0.997499 0.995561 0.993626 0.991694 
0.989767 0.987843 0.985923 0.984007 0.982095 0.980186 0.978281 0.976379 0.974482 
0.972588 0.970697 0.968811 0.966928 0.965049 0.963173 0.961301 0.959433 0.957568 
0.955707 0.953849 0.951995 0.950145 0.948298 0.946455 0.944616 0.94278 0.940947 
0.939119 0.937293 0.935472 0.933653 0.931839 0.930028 0.92822 0.926416 0.924616 
0.922818 0.921025 0.919235 0.917448 0.915665 0.913885 0.912109 0.910336 0.908567 
0.906801 0.905039 0.90328 0.901524 0.899772 0.898023 0.896278 0.894536 0.892797 
0.891062 0.88933 0.887602 0.885877 0.884155 0.882436 0.880721 0.879009 0.877301 
0.875596 0.873894 0.872196 0.8705 0.868809 0.86712 0.865435 0.863753 0.862074 
0.860398 0.858726 0.857057 0.855391 0.853729 0.852069 0.850413 0.848761 0.847111 
0.845465 0.843821 0.842181 0.840544 0.838911 0.83728 0.835653 0.834029 0.832408 
0.83079 0.829175 0.827564 0.825955 0.82435 0.822748 0.821149 0.819553 0.81796 
0.81637 0.814783 0.8132 0.811619 0.810042 0.808467 0.806896 0.805328 0.803763 
0.8022 0.800641 0.799085 0.797532 0.795982 0.794435 0.792891 0.79135 0.789812 
0.788277 0.786745 0.785215 0.783689 0.782166 0.780646 0.779129 0.777614 0.776103 
0.774595 0.773089 0.771587 0.770087 0.76859 0.767096 0.765605 0.764117 0.762632 
0.76115 0.759671 0.758194 0.756721 0.75525 0.753782 0.752317 0.750855 0.749395 
0.747939 0.746485 0.745034 0.743586 0.742141 0.740699 0.739259 0.737822 0.736388 
0.734957 0.733529 0.732103 0.73068 0.72926 0.727842 0.726428 0.725016 0.723607 
0.7222 0.720797 0.719396 0.717998 0.716602 0.715209 0.713819 0.712432 0.711047 
0.709665 0.708286 0.706909 0.705535 0.704164 0.702796 0.70143 0.700066 0.698706 
0.697348 0.695992 0.69464 0.69329 0.691942 0.690597 0.689255 0.687915 0.686578 
0.685244 0.683912 0.682583 0.681256 0.679932 0.678611 0.677292 0.675975 0.674662 
0.67335 0.672042 0.670735 0.669432 0.668131 0.666832 0.665536 0.664243 0.662952 
0.661663 0.660377 0.659094 0.657813 0.656534 0.655258 0.653984 0.652713 0.651445 
0.650179 0.648915 0.647654 0.646395 0.645139 0.643885 0.642633 0.641384 0.640138 
0.638894 0.637652 0.636412 0.635176 0.633941 0.632709 0.631479 0.630252 0.629027 
0.627804 0.626584 0.625366 0.624151 0.622938 0.621727 0.620519 0.619313 0.618109 
0.616908 0.615709 0.614512 0.613318 0.612126 0.610936 0.609748 0.608563 0.607381 
0.6062 0.605022 0.603846 0.602672 0.601501 0.600332 0.599165 0.598001 0.596838 
0.595678 0.594521 0.593365 0.592212 0.591061 0.589912 0.588765 0.587621 0.586479 
0.585339 0.584202 0.583066 0.581933 0.580802 0.579673 0.578546 0.577422 0.5763 
0.57518 0.574062 0.572946 0.571832 0.570721 0.569612 0.568505 0.5674 0.566297 
0.565196 0.564098 0.563001 0.561907 0.560815 0.559725 0.558637 0.557551 0.556468 
0.555386 0.554307 0.553229 0.552154 0.551081 0.55001 0.548941 0.547874 0.546809 
0.545746 0.544686 0.543627 0.54257 0.541516 0.540463 0.539413 0.538365 0.537318 
0.536274 0.535232 0.534191 0.533153 0.532117 0.531083 0.530051 0.52902 0.527992 
0.526966 0.525942 0.52492 0.523899 0.522881 0.521865 0.520851 0.519838 0.518828 
0.517819 0.516813 0.515809 0.514806 0.513805 0.512807 0.51181 0.510815 0.509823 
0.508832 0.507843 0.506856 0.505871 0.504887 0.503906 0.502927 0.501949 0.500974 
0.5 0.894536 0.892797 0.891062 0.88933 0.887602 0.885877 0.884155 0.882436 
0.880721 0.879009 0.877301 0.875596 0.873894 0.872196 0.8705 0.868809 0.86712 
0.865435 0.863753 0.862074 0.860398 0.858726 0.857057 0.855391 0.853729 0.852069 
0.850413 0.848761 0.847111 0.845465 0.843821 0.842181 0.840544 0.838911 0.83728 
0.835653 0.834029 0.832408 0.83079 0.829175 0.827564 0.825955 0.82435 0.822748 
0.821149 0.819553 0.81796 0.81637 0.814783 0.8132 0.811619 0.810042 0.808467 
0.806896 0.805328 0.803763 0.8022 0.800641 0.799085 0.797532 0.795982 0.794435 
0.792891 0.79135 0.789812 0.788277 0.786745 0.785215 0.783689 0.782166 0.780646 
0.779129 0.777614 0.776103 0.774595 0.773089 0.771587 0.770087 0.76859 0.767096 
0.765605 0.764117 0.762632 0.76115 0.759671 0.758194 0.756721 0.75525 0.753782 
0.752317 0.750855 0.749395 0.747939 0.746485 0.745034 0.743586 0.742141 0.740699 
0.739259 0.737822 0.736388 0.734957 0.733529 0.732103 0.73068 0.72926 0.727842 
0.726428 0.725016 0.723607 0.7222 0.720797 0.719396 0.717998 0.716602 0.715209 
0.713819 0.712432 0.711047 0.709665 0.708286 0.706909 0.705535 0.704164 0.702796 
0.70143 0.700066 0.698706 0.697348 0.695992 0.69464 0.69329 0.691942 0.690597 
0.689255 0.687915 0.686578 0.685244 0.683912 0.682583 0.681256 0.679932 0.678611 
0.677292 0.675975 0.674662 0.67335 0.672042 0.670735 0.669432 0.668131 0.666832 
0.665536 0.664243 0.662952 0.661663 0.660377 0.659094 0.657813 0.656534 0.655258 
0.653984 0.652713 0.651445 0.650179 0.648915 0.647654 0.646395 0.645139 0.643885 
0.642633 0.641384 0.640138 0.638894 0.637652 0.636412 0.635176 0.633941 0.632709 
0.631479 0.630252 0.629027 0.627804 0.626584 0.625366 0.624151 0.622938 0.621727 
0.620519 0.619313 0.618109 0.616908 0.615709 0.614512 0.613318 0.612126 0.610936 
0.609748 0.608563 0.607381 0.6062 0.605022 0.603846 0.602672 0.601501 0.600332 
0.599165 0.598001 0.596838 0.595678 0.594521 0.593365 0.592212 0.591061 0.589912 
0.588765 0.587621 0.586479 0.585339 0.584202 0.583066 0.581933 0.580802 0.579673 
0.578546 0.577422 0.5763 0.57518 0.574062 0.572946 0.571832 0.570721 0.569612 
0.568505 0.5674 0.566297 0.565196 0.564098 0.563001 0.561907 0.560815 0.559725 
0.558637 0.557551 0.556468 0.555386 0.554307 0.553229 0.552154 0.551081 0.55001 
0.548941 0.547874 0.546809 0.545746 0.544686 0.543627 0.54257 0.541516 0.540463 
0.539413 0.538365 0.537318 0.536274 0.535232 0.534191 0.533153 0.532117 0.531083 
0.530051 0.52902 0.527992 0.526966 0.525942 0.52492 0.523899 0.522881 0.521865 
0.520851 0.519838 0.518828 0.517819 0.516813 0.515809 0.514806 0.513805 0.512807 
0.51181 0.510815 0.509823 0.508832 0.507843 0.506856 0.505871 0.504887 0.503906 
0.502927 0.501949 0.500974 0.5 1.31938 1.31617 1.31297 1.30978 1.3066 
1.30343 1.30026 1.29711 1.29396 1.29081 1.28768 1.28455 1.28143 1.27832 
1.27521 1.27211 1.26902 1.26594 1.26287 1.2598 1.25674 1.25369 1.25064 
1.24761 1.24457 1.24155 1.23854 1.23553 1.23253 1.22953 1.22655 1.22357 
1.2206 1.21763 1.21467 1.21172 1.20878 1.20584 1.20292 1.19999 1.19708 
1.19417 1.19127 1.18838 1.18549 1.18261 1.17974 1.17687 1.17402 1.17116 
1.16832 1.16548 1.16265 1.15983 1.15701 1.1542 1.1514 1.1486 1.14581 
1.14303 1.14025 1.13748 1.13472 1.13196 1.12921 1.12647 1.12373 1.121 
1.11828 1.11557 1.11286 1.11015 1.10746 1.10477 1.10208 1.09941 1.09674 
1.09407 1.09141 1.08876 1.08612 1.08348 1.08085 1.07822 1.07561 1.07299 
1.07039 1.06779 1.06519 1.06261 1.06002 1.05745 1.05488 1.05232 1.04976 
1.04721 1.04467 1.04213 1.0396 1.03708 1.03456 1.03204 1.02954 1.02704 
1.02454 1.02205 1.01957 1.0171 1.01463 1.01216 1.0097 1.00725 1.0048 
1.00236 0.999928 0.997499 0.995077 0.99266 0.990249 0.987843 0.985444 0.98305 
0.980663 0.978281 0.975905 0.973534 0.97117 0.968811 0.966458 0.96411 0.961769 
0.959433 0.957102 0.954778 0.952458 0.950145 0.947837 0.945535 0.943238 0.940947 
0.938662 0.936382 0.934108 0.931839 0.929576 0.927318 0.925065 0.922818 0.920577 
0.918341 0.916111 0.913885 0.911666 0.909451 0.907242 0.905039 0.902841 0.900648 
0.89846 0.896278 0.894101 0.891929 0.889763 0.887602 0.885446 0.883295 0.88115 
0.879009 0.876874 0.874745 0.87262 0.8705 0.868386 0.866277 0.864173 0.862074 
0.85998 0.857891 0.855807 0.853729 0.851655 0.849587 0.847523 0.845465 0.843411 
0.841362 0.839319 0.83728 0.835247 0.833218 0.831194 0.829175 0.827161 0.825152 
0.823148 0.821149 0.819154 0.817164 0.81518 0.8132 0.811225 0.809254 0.807289 
0.805328 0.803372 0.80142 0.799474 0.797532 0.795595 0.793662 0.791735 0.789812 
0.787893 0.78598 0.784071 0.782166 0.780266 0.778371 0.776481 0.774595 0.772713 
0.770836 0.768964 0.767096 0.765233 0.763375 0.76152 0.759671 0.757826 0.755985 
0.754149 0.752317 0.75049 0.748667 0.746848 0.745034 0.743225 0.74142 0.739619 
0.737822 0.73603 0.734242 0.732459 0.73068 0.728905 0.727135 0.725369 0.723607 
0.721849 0.720096 0.718347 0.716602 0.714862 0.713125 0.711393 0.709665 0.707942 
0.706222 0.704507 0.702796 0.701089 0.699386 0.697687 0.695992 0.694302 0.692616 
0.690933 0.689255 0.687581 0.685911 0.684245 0.682583 0.680925 0.679271 0.677621 
0.675975 0.674333 0.672696 0.671062 0.669432 0.667806 0.666184 0.664566 0.662952 
0.661341 0.659735 0.658133 0.656534 0.654939 0.653349 0.651762 0.650179 0.648599 
0.647024 0.645452 0.643885 0.642321 0.640761 0.639204 0.637652 0.636103 0.634558 
0.633017 0.631479 0.629945 0.628415 0.626889 0.625366 0.623847 0.622332 0.620821 
0.619313 0.617808 0.616308 0.614811 0.613318 0.611828 0.610342 0.608859 0.607381 
0.605905 0.604434 0.602966 0.601501 0.60004 0.598583 0.597129 0.595678 0.594231 
0.592788 0.591348 0.589912 0.588479 0.58705 0.585624 0.584202 0.582783 0.581367 
0.579955 0.578546 0.577141 0.575739 0.574341 0.572946 0.571554 0.570166 0.568781 
0.5674 0.566022 0.564647 0.563275 0.561907 0.560542 0.559181 0.557823 0.556468 
0.555116 0.553768 0.552423 0.551081 0.549742 0.548407 0.547075 0.545746 0.544421 
0.543099 0.541779 0.540463 0.539151 0.537841 0.536535 0.535232 0.533932 0.532635 
0.531341 0.530051 0.528763 0.527479 0.526198 0.52492 0.523645 0.522373 0.521104 
0.519838 0.518576 0.517316 0.516059 0.514806 0.513556 0.512308 0.511064 0.509823 
0.508584 0.507349 0.506117 0.504887 0.503661 0.502438 0.501217 0.5 1.94925 
1.94684 1.94443 1.94203 1.93963 1.93723 1.93483 1.93243 1.93004 1.92766 
1.92527 1.92289 1.92051 1.91813 1.91576 1.91339 1.91102 1.90866 1.9063 
1.90394 1.90158 1.89923 1.89688 1.89453 1.89219 1.88985 1.88751 1.88517 
1.88284 1.88051 1.87819 1.87586 1.87354 1.87122 1.86891 1.86659 1.86429 
1.86198 1.85968 1.85737 1.85508 1.85278 1.85049 1.8482 1.84591 1.84363 
1.84135 1.83907 1.83679 1.83452 1.83225 1.82998 1.82772 1.82546 1.8232 
1.82094 1.81869 1.81644 1.81419 1.81195 1.80971 1.80747 1.80523 1.803 
1.80077 1.79854 1.79631 1.79409 1.79187 1.78965 1.78744 1.78523 1.78302 
1.78081 1.77861 1.77641 1.77421 1.77202 1.76982 1.76764 1.76545 1.76326 
1.76108 1.7589 1.75673 1.75455 1.75238 1.75021 1.74805 1.74589 1.74373 
1.74157 1.73941 1.73726 1.73511 1.73297 1.73082 1.72868 1.72654 1.7244 
1.72227 1.72014 1.71801 1.71589 1.71376 1.71164 1.70953 1.70741 1.7053 
1.70319 1.70108 1.69898 1.69687 1.69477 1.69268 1.69058 1.68849 1.6864 
1.68432 1.68223 1.68015 1.67807 1.676 1.67392 1.67185 1.66978 1.66772 
1.66565 1.66359 1.66153 1.65948 1.65742 1.65537 1.65333 1.65128 1.64924 
1.6472 1.64516 1.64312 1.64109 1.63906 1.63703 1.63501 1.63298 1.63096 
1.62895 1.62693 1.62492 1.62291 1.6209 1.61889 1.61689 1.61489 1.61289 
1.6109 1.6089 1.60691 1.60492 1.60294 1.60095 1.59897 1.597 1.59502 
1.59305 1.59108 1.58911 1.58714 1.58518 1.58322 1.58126 1.5793 1.57735 
1.57539 1.57345 1.5715 1.56955 1.56761 1.56567 1.56374 1.5618 1.55987 
1.55794 1.55601 1.55409 1.55216 1.55024 1.54832 1.54641 1.5445 1.54258 
1.54068 1.53877 1.53687 1.53496 1.53307 1.53117 1.52927 1.52738 1.52549 
1.5236 1.52021 1.51683 1.51345 1.51008 1.50672 1.50337 1.50002 1.49668 
1.49335 1.49003 1.48671 1.4834 1.4801 1.4768 1.47352 1.47024 1.46696 
1.4637 1.46044 1.45719 1.45395 1.45071 1.44748 1.44426 1.44104 1.43784 
1.43464 1.43144 1.42826 1.42508 1.4219 1.41874 1.41558 1.41243 1.40929 
1.40615 1.40302 1.3999 1.39678 1.39367 1.39057 1.38747 1.38438 1.3813 
1.37823 1.37516 1.3721 1.36904 1.366 1.36296 1.35992 1.3569 1.35388 
1.35086 1.34785 1.34485 1.34186 1.33887 1.33589 1.33292 1.32995 1.32699 
1.32404 1.32109 1.31815 1.31522 1.31229 1.30937 1.30645 1.30354 1.30064 
1.29775 1.29486 1.29198 1.2891 1.28623 1.28337 1.28051 1.27766 1.27482 
1.27198 1.26915 1.26632 1.2635 1.26069 1.25789 1.25509 1.25229 1.2495 
1.24672 1.24395 1.24118 1.23842 1.23566 1.23291 1.23016 1.22743 1.22469 
1.22197 1.21925 1.21653 1.21383 1.21112 1.20843 1.20574 1.20305 1.20038 
1.1977 1.19504 1.19238 1.18972 1.18708 1.18443 1.1818 1.17917 1.17654 
1.17392 1.17131 1.1687 1.1661 1.1635 1.16091 1.15833 1.15575 1.15318 
1.15061 1.14805 1.1455 1.14295 1.1404 1.13786 1.13533 1.1328 1.13028 
1.12777 1.12525 1.12275 1.12025 1.11776 1.11527 1.11279 1.11031 1.10784 
1.10537 1.10291 1.10046 1.09801 1.09556 1.09312 1.09069 1.08826 1.08584 
1.08342 1.08101 1.07861 1.0762 1.07381 1.07142 1.06903 1.06665 1.06428 
1.06191 1.05955 1.05719 1.05484 1.05249 1.05014 1.04781 1.04547 1.04315 
1.04083 1.03851 1.0362 1.03389 1.03159 1.02929 1.027 1.02471 1.02243 
1.02016 1.01789 1.01562 1.01336 1.01111 1.00885 1.00661 1.00437 1.00213 
0.999902 0.997676 0.995455 0.993239 0.991028 0.988822 0.986621 0.984425 0.982234 
0.980047 0.977866 0.975689 0.973517 0.97135 0.969188 0.967031 0.964878 0.96273 
0.960587 0.958449 0.956315 0.954187 0.952063 0.949943 0.947829 0.945719 0.943614 
0.941513 0.939418 0.937327 0.93524 0.933158 0.931081 0.929009 0.926941 0.924877 
0.922818 0.920764 0.918715 0.91667 0.914629 0.912593 0.910562 0.908535 0.906513 
0.904495 0.902481 0.900472 0.898468 0.896468 0.894473 0.892481 0.890495 0.888513 
0.886535 0.884561 0.882592 0.880628 0.878668 0.876712 0.87476 0.872813 0.87087 
0.868932 0.866997 0.865067 0.863142 0.86122 0.859303 0.857391 0.855482 0.853578 
0.851678 0.849782 0.84789 0.846003 0.84412 0.842241 0.840366 0.838495 0.836629 
0.834767 0.832908 0.831054 0.829205 0.827359 0.825517 0.823679 0.821846 0.820017 
0.818191 0.81637 0.814553 0.81274 0.81093 0.809125 0.807324 0.805527 0.803734 
0.801945 0.80016 0.798379 0.796602 0.794828 0.793059 0.791294 0.789532 0.787775 
0.786021 0.784272 0.782526 0.780784 0.779046 0.777312 0.775582 0.773855 0.772133 
0.770414 0.768699 0.766988 0.765281 0.763577 0.761877 0.760181 0.758489 0.756801 
0.755116 0.753435 0.751758 0.750085 0.748415 0.746749 0.745087 0.743429 0.741774 
0.740123 0.738475 0.736831 0.735191 0.733555 0.731922 0.730292 0.728667 0.727045 
0.725426 0.723812 0.7222 0.720593 0.718989 0.717388 0.715792 0.714198 0.712608 
0.711022 0.709439 0.70786 0.706285 0.704712 0.703144 0.701579 0.700017 0.698459 
0.696904 0.695353 0.693805 0.69226 0.690719 0.689182 0.687648 0.686117 0.68459 
0.683066 0.681545 0.680028 0.678515 0.677004 0.675497 0.673994 0.672493 0.670996 
0.669503 0.668013 0.666526 0.665042 0.663562 0.662084 0.660611 0.65914 0.657673 
0.656209 0.654748 0.653291 0.651837 0.650386 0.648938 0.647493 0.646052 0.644614 
0.643179 0.641747 0.640319 0.638894 0.637471 0.636052 0.634637 0.633224 0.631814 
0.630408 0.629005 0.627605 0.626208 0.624814 0.623423 0.622035 0.62065 0.619269 
0.61789 0.616515 0.615143 0.613773 0.612407 0.611044 0.609684 0.608327 0.606972 
0.605621 0.604273 0.602928 0.601586 0.600247 0.598911 0.597578 0.596247 0.59492 
0.593596 0.592275 0.590956 0.589641 0.588328 0.587019 0.585712 0.584408 0.583107 
0.581809 0.580514 0.579222 0.577933 0.576646 0.575363 0.574082 0.572804 0.571529 
0.570257 0.568987 0.567721 0.566457 0.565196 0.563938 0.562683 0.56143 0.560181 
0.558934 0.557689 0.556448 0.555209 0.553974 0.55274 0.55151 0.550282 0.549057 
0.547835 0.546616 0.545399 0.544185 0.542974 0.541765 0.540559 0.539356 0.538155 
0.536957 0.535762 0.534569 0.53338 0.532192 0.531008 0.529826 0.528646 0.527469 
0.526295 0.525124 0.523955 0.522789 0.521625 0.520464 0.519305 0.518149 0.516996 
0.515845 0.514697 0.513551 0.512408 0.511267 0.510129 0.508994 0.507861 0.50673 
0.505602 0.504477 0.503354 0.502233 0.501115 0.5 1.52172 1.51984 1.51796 
1.51608 1.5142 1.51233 1.51046 1.50859 1.50672 1.50486 1.503 1.50114 
1.49928 1.49742 1.49557 1.49372 1.49187 1.49003 1.48818 1.48634 1.4845 
1.48267 1.48083 1.479 1.47717 1.47534 1.47352 1.47169 1.46987 1.46805 