# vtk DataFile Version 3.0
vtk output
ASCII
DATASET POLYDATA
POINTS 3601 float
50 0 0 49.9999 0.0999999 0 49.9996 0.199999 0 
49.9991 0.299998 0 49.9984 0.399996 0 49.9975 0.499992 0 
49.9964 0.599986 0 49.9951 0.699977 0 49.9936 0.799966 0 
49.9919 0.899951 0 49.99 0.999933 0 49.9879 1.09991 0 
49.9856 1.19988 0 49.9831 1.29985 0 49.9804 1.39982 0 
49.9775 1.49978 0 49.9744 1.59973 0 49.9711 1.69967 0 
49.9676 1.79961 0 49.9639 1.89954 0 49.96 1.99947 0 
49.9559 2.09938 0 49.9516 2.19929 0 49.9471 2.29919 0 
49.9424 2.39908 0 49.9375 2.49896 0 49.9324 2.59883 0 
49.9271 2.69869 0 49.9216 2.79854 0 49.9159 2.89837 0 
49.91 2.9982 0 49.9039 3.09801 0 49.8976 3.19782 0 
49.8911 3.2976 0 49.8844 3.39738 0 49.8775 3.49714 0 
49.8705 3.59689 0 49.8632 3.69662 0 49.8557 3.79634 0 
49.848 3.89605 0 49.8401 3.99573 0 49.832 4.09541 0 
49.8237 4.19506 0 49.8152 4.2947 0 49.8065 4.39432 0 
49.7976 4.49393 0 49.7885 4.59351 0 49.7793 4.69308 0 
49.7698 4.79263 0 49.7601 4.89216 0 49.7502 4.99167 0 
49.7401 5.09116 0 49.7298 5.19063 0 49.7194 5.29008 0 
49.7087 5.38951 0 49.6978 5.48891 0 49.6867 5.5883 0 
49.6755 5.68766 0 49.664 5.787 0 49.6523 5.88632 0 
49.6404 5.98561 0 49.6284 6.08488 0 49.6161 6.18412 0 
49.6036 6.28334 0 49.591 6.38254 0 49.5781 6.48171 0 
49.565 6.58085 0 49.5518 6.67997 0 49.5383 6.77906 0 
49.5247 6.87812 0 49.5108 6.97716 0 49.4967 7.07616 0 
49.4825 7.17514 0 49.468 7.27409 0 49.4534 7.37301 0 
49.4386 7.47191 0 49.4235 7.57077 0 49.4083 7.6696 0 
49.3928 7.7684 0 49.3772 7.86717 0 49.3614 7.96591 0 
49.3453 8.06462 0 49.3291 8.16329 0 49.3127 8.26193 0 
49.2961 8.36054 0 49.2792 8.45912 0 49.2622 8.55766 0 
49.245 8.65617 0 49.2276 8.75464 0 49.21 8.85308 0 
49.1922 8.95148 0 49.1742 9.04984 0 49.156 9.14818 0 
49.1376 9.24647 0 49.119 9.34473 0 49.1002 9.44294 0 
49.0812 9.54113 0 49.062 9.63927 0 49.0427 9.73737 0 
49.0231 9.83544 0 49.0033 9.93347 0 48.9834 10.0315 0 
48.9632 10.1294 0 48.9428 10.2273 0 48.9223 10.3252 0 
48.9015 10.423 0 48.8806 10.5208 0 48.8595 10.6185 0 
48.8381 10.7162 0 48.8166 10.8139 0 48.7949 10.9115 0 
48.773 11.009 0 48.7508 11.1066 0 48.7285 11.2041 0 
48.706 11.3015 0 48.6833 11.3989 0 48.6604 11.4962 0 
48.6373 11.5935 0 48.6141 11.6908 0 48.5906 11.788 0 
48.5669 11.8851 0 48.543 11.9822 0 48.519 12.0793 0 
48.4947 12.1763 0 48.4703 12.2733 0 48.4456 12.3702 0 
48.4208 12.4671 0 48.3958 12.5639 0 48.3705 12.6606 0 
48.3451 12.7574 0 48.3195 12.854 0 48.2937 12.9506 0 
48.2677 13.0472 0 48.2415 13.1437 0 48.2151 13.2402 0 
48.1885 13.3366 0 48.1618 13.4329 0 48.1348 13.5292 0 
48.1077 13.6255 0 48.0803 13.7216 0 48.0528 13.8178 0 
48.025 13.9139 0 47.9971 14.0099 0 47.969 14.1058 0 
47.9407 14.2018 0 47.9122 14.2976 0 47.8835 14.3934 0 
47.8546 14.4891 0 47.8255 14.5848 0 47.7963 14.6804 0 
47.7668 14.776 0 47.7372 14.8715 0 47.7073 14.967 0 
47.6773 15.0623 0 47.6471 15.1577 0 47.6167 15.2529 0 
47.5861 15.3481 0 47.5553 15.4433 0 47.5243 15.5384 0 
47.4931 15.6334 0 47.4618 15.7283 0 47.4302 15.8232 0 
47.3985 15.918 0 47.3665 16.0128 0 47.3344 16.1075 0 
47.3021 16.2022 0 47.2696 16.2967 0 47.2369 16.3912 0 
47.2041 16.4857 0 47.171 16.58 0 47.1377 16.6744 0 
47.1043 16.7686 0 47.0707 16.8628 0 47.0368 16.9569 0 
47.0028 17.0509 0 46.9686 17.1449 0 46.9343 17.2388 0 
46.8997 17.3326 0 46.8649 17.4264 0 46.83 17.5201 0 
46.7948 17.6137 0 46.7595 17.7073 0 46.724 17.8007 0 
46.6883 17.8942 0 46.6524 17.9875 0 46.6164 18.0808 0 
46.5801 18.174 0 46.5437 18.2671 0 46.507 18.3601 0 
46.4702 18.4531 0 46.4332 18.546 0 46.396 18.6389 0 
46.3587 18.7316 0 46.3211 18.8243 0 46.2834 18.9169 0 
46.2455 19.0094 0 46.2073 19.1019 0 46.169 19.1943 0 
46.1306 19.2866 0 46.0919 19.3788 0 46.0531 19.4709 0 
46.0192 19.5506 0.05 45.9852 19.6303 0.0999999 45.951 19.7099 0.15 
45.9167 19.7894 0.199999 45.8821 19.8688 0.249998 45.8474 19.9481 0.299996 
45.8125 20.0273 0.349994 45.7774 20.1065 0.399991 45.7421 20.1856 0.449988 
45.7066 20.2646 0.499983 45.671 20.3435 0.549978 45.6352 20.4224 0.599971 
45.5991 20.5011 0.649963 45.5629 20.5798 0.699954 45.5266 20.6584 0.749944 
45.49 20.7369 0.799932 45.4533 20.8153 0.849918 45.4164 20.8936 0.899903 
45.3793 20.9719 0.949886 45.342 21.05 0.999867 45.3045 21.1281 1.04985 
45.2669 21.2061 1.09982 45.2291 21.284 1.1498 45.1911 21.3618 1.19977 
45.1529 21.4395 1.24974 45.1146 21.5171 1.29971 45.076 21.5947 1.34967 
45.0373 21.6721 1.39963 44.9984 21.7495 1.44959 44.9594 21.8267 1.49955 
44.9201 21.9039 1.5495 44.8807 21.981 1.59945 44.8411 22.058 1.6494 
44.8013 22.1349 1.69935 44.7614 22.2117 1.74929 44.7213 22.2884 1.79922 
44.681 22.365 1.84916 44.6405 22.4415 1.89909 44.5998 22.5179 1.94901 
44.559 22.5942 1.99893 44.518 22.6705 2.04885 44.4768 22.7466 2.09877 
44.4355 22.8226 2.14868 44.3939 22.8985 2.19858 44.3522 22.9744 2.24848 
44.3104 23.0501 2.29838 44.2683 23.1258 2.34827 44.2261 23.2013 2.39816 
44.1837 23.2767 2.44804 44.1411 23.3521 2.49792 44.0984 23.4273 2.54779 
44.0555 23.5025 2.59766 44.0124 23.5775 2.64752 43.9692 23.6524 2.69738 
43.9257 23.7272 2.74723 43.8821 23.802 2.79708 43.8384 23.8766 2.84692 
43.7944 23.9511 2.89675 43.7503 24.0255 2.94658 43.7061 24.0998 2.99641 
43.6616 24.174 3.04622 43.617 24.2481 3.09603 43.5722 24.3221 3.14584 
43.5273 24.396 3.19564 43.4821 24.4698 3.24543 43.4368 24.5435 3.29522 
43.3914 24.617 3.345 43.3458 24.6905 3.39477 43.3 24.7638 3.44454 
43.254 24.8371 3.49429 43.2079 24.9102 3.54405 43.1616 24.9832 3.59379 
43.1151 25.0561 3.64353 43.0685 25.1289 3.69326 43.0217 25.2016 3.74298 
42.9748 25.2742 3.7927 42.9277 25.3466 3.84241 42.8804 25.419 3.89211 
42.8329 25.4912 3.9418 42.7853 25.5633 3.99149 42.7375 25.6354 4.04117 
42.6896 25.7072 4.09084 42.6415 25.779 4.1405 42.5932 25.8507 4.19015 
42.5448 25.9222 4.23979 42.4962 25.9937 4.28943 42.4475 26.065 4.33906 
42.3986 26.1362 4.38868 42.3495 26.2073 4.43829 42.3003 26.2782 4.48789 
42.2509 26.3491 4.53748 42.2013 26.4198 4.58707 42.1516 26.4904 4.63664 
42.1017 26.5609 4.68621 42.0517 26.6313 4.73576 42.0015 26.7016 4.78531 
41.9512 26.7717 4.83485 41.9007 26.8417 4.88437 41.85 26.9116 4.93389 
41.7992 26.9814 4.9834 41.7482 27.051 5.0329 41.6971 27.1205 5.08239 
41.6458 27.1899 5.13187 41.5943 27.2592 5.18133 41.5427 27.3284 5.23079 
41.491 27.3974 5.28024 41.4391 27.4663 5.32968 41.387 27.5351 5.3791 
41.3348 27.6038 5.42852 41.2824 27.6723 5.47792 41.2299 27.7407 5.52732 
41.1772 27.809 5.5767 41.1243 27.8771 5.62607 41.0714 27.9452 5.67544 
41.0182 28.0131 5.72479 40.9649 28.0809 5.77412 40.9115 28.1485 5.82345 
40.8579 28.216 5.87277 40.8041 28.2834 5.92207 40.7502 28.3507 5.97136 
40.6962 28.4178 6.02065 40.642 28.4848 6.06991 40.5877 28.5517 6.11917 
40.5332 28.6184 6.16842 40.4785 28.685 6.21765 40.4237 28.7515 6.26687 
40.3688 28.8178 6.31608 40.3137 28.8841 6.36527 40.2585 28.9501 6.41446 
40.2031 29.0161 6.46363 40.1476 29.0819 6.51279 40.0919 29.1476 6.56193 
40.0361 29.2131 6.61106 39.9801 29.2785 6.66018 39.924 29.3438 6.70929 
39.8677 29.409 6.75838 39.8113 29.474 6.80746 39.7548 29.5389 6.85653 
39.6981 29.6036 6.90558 39.6413 29.6682 6.95462 39.5843 29.7327 7.00365 
39.5272 29.797 7.05266 39.4699 29.8612 7.10166 39.4125 29.9252 7.15064 
39.355 29.9892 7.19961 39.2973 30.0529 7.24857 39.2395 30.1166 7.29751 
39.1815 30.1801 7.34644 39.1234 30.2434 7.39535 39.0652 30.3067 7.44425 
39.0068 30.3697 7.49314 38.9483 30.4327 7.54201 38.8896 30.4955 7.59086 
38.8309 30.5581 7.6397 38.7719 30.6206 7.68853 38.7129 30.683 7.73734 
38.6537 30.7453 7.78613 38.5943 30.8074 7.83491 38.5348 30.8693 7.88368 
38.4752 30.9311 7.93243 38.4155 30.9928 7.98116 38.3556 31.0543 8.02988 
38.2956 31.1157 8.07858 38.2354 31.1769 8.12727 38.1752 31.238 8.17594 
38.1147 31.2989 8.22459 38.0542 31.3597 8.27323 37.9935 31.4204 8.32185 
37.9327 31.4809 8.37046 37.8718 31.5412 8.41905 37.8107 31.6014 8.46763 
37.7495 31.6615 8.51618 37.6882 31.7214 8.56473 37.6267 31.7812 8.61325 
37.5651 31.8408 8.66176 37.5034 31.9003 8.71025 37.4415 31.9596 8.75872 
37.3795 32.0188 8.80718 37.3174 32.0778 8.85562 37.2552 32.1367 8.90404 
37.1928 32.1954 8.95245 37.1304 32.254 9.00084 37.0677 32.3124 9.04921 
37.005 32.3707 9.09756 36.9422 32.4288 9.1459 36.8792 32.4868 9.19422 
36.816 32.5447 9.24252 36.7528 32.6023 9.2908 36.6895 32.6599 9.33906 
36.626 32.7172 9.38731 36.5624 32.7744 9.43554 36.4986 32.8315 9.48375 
36.4348 32.8884 9.53194 36.3708 32.9452 9.58011 36.3067 33.0018 9.62827 
36.2425 33.0582 9.67641 36.1782 33.1145 9.72452 36.1137 33.1707 9.77262 
36.0492 33.2267 9.8207 35.9845 33.2825 9.86877 35.9535 33.2884 9.96156 
35.9223 33.2941 10.0543 35.8911 33.2997 10.1469 35.8597 33.3052 10.2395 
35.8282 33.3105 10.332 35.7966 33.3157 10.4244 35.7649 33.3207 10.5168 
35.7331 33.3256 10.6091 35.7011 33.3304 10.7013 35.669 33.335 10.7934 
35.6368 33.3395 10.8855 35.6045 33.3439 10.9775 35.5721 33.3481 11.0693 
35.5396 33.3522 11.1612 35.5069 33.3561 11.2529 35.4742 33.3599 11.3446 
35.4413 33.3636 11.4361 35.4083 33.3671 11.5276 35.3752 33.3705 11.6191 
35.342 33.3738 11.7104 35.3087 33.3769 11.8017 35.2753 33.3799 11.8928 
35.2417 33.3827 11.9839 35.2081 33.3855 12.0749 35.1743 33.388 12.1658 
35.1404 33.3905 12.2567 35.1064 33.3928 12.3474 35.0724 33.395 12.4381 
35.0382 33.397 12.5286 35.0039 33.3989 12.6191 34.9695 33.4007 12.7095 
34.9349 33.4023 12.7998 34.9003 33.4038 12.89 34.8656 33.4052 12.9802 
34.8308 33.4064 13.0702 34.7958 33.4075 13.1601 34.7608 33.4085 13.25 
34.7257 33.4093 13.3398 34.6904 33.41 13.4294 34.6551 33.4105 13.519 
34.6196 33.4109 13.6085 34.5841 33.4112 13.6979 34.5484 33.4114 13.7872 
34.5127 33.4114 13.8764 34.4768 33.4113 13.9655 34.4409 33.411 14.0545 
34.4048 33.4107 14.1434 34.3687 33.4101 14.2322 34.3324 33.4095 14.3209 
34.2961 33.4087 14.4096 34.2597 33.4078 14.4981 34.2231 33.4067 14.5865 
34.1865 33.4056 14.6748 34.1498 33.4043 14.7631 34.113 33.4028 14.8512 
34.0761 33.4012 14.9392 34.0391 33.3995 15.0271 34.002 33.3977 15.1149 
33.9648 33.3957 15.2026 33.9275 33.3936 15.2903 33.8901 33.3914 15.3778 
[...]
POINT_DATA 3601
SCALARS radiiScalars double
LOOKUP_TABLE default
2.5 2.49846 2.49692 2.49538 2.49385 2.49231 2.49077 2.48923 2.48769 
2.48615 2.48462 2.48308 2.48154 2.48 2.47846 2.47692 2.47538 2.47385 
2.47231 2.47077 2.46923 2.46769 2.46615 2.46462 2.46308 2.46154 2.46 
2.45846 2.45692 2.45538 2.45385 2.45231 2.45077 2.44923 2.44769 2.44615 
2.44462 2.44308 2.44154 2.44 2.43846 2.43692 2.43538 2.43385 2.43231 
2.43077 2.42923 2.42769 2.42615 2.42462 2.42308 2.42154 2.42 2.41846 
2.41692 2.41538 2.41385 2.41231 2.41077 2.40923 2.40769 2.40615 2.40462 
2.40308 2.40154 2.4 2.39846 2.39692 2.39538 2.39385 2.39231 2.39077 
2.38923 2.38769 2.38615 2.38462 2.38308 2.38154 2.38 2.37846 2.37692 
2.37538 2.37385 2.37231 2.37077 2.36923 2.36769 2.36615 2.36462 2.36308 
2.36154 2.36 2.35846 2.35692 2.35538 2.35385 2.35231 2.35077 2.34923 
2.34769 2.34615 2.34462 2.34308 2.34154 2.34 2.33846 2.33692 2.33538 
2.33385 2.33231 2.33077 2.32923 2.32769 2.32615 2.32462 2.32308 2.32154 
2.32 2.31846 2.31692 2.31538 2.31385 2.31231 2.31077 2.30923 2.30769 
2.30615 2.30462 2.30308 2.30154 2.3 2.29846 2.29692 2.29538 2.29385 
2.29231 2.29077 2.28923 2.28769 2.28615 2.28462 2.28308 2.28154 2.28 
2.27846 2.27692 2.27538 2.27385 2.27231 2.27077 2.26923 2.26769 2.26615 
2.26462 2.26308 2.26154 2.26 2.25846 2.25692 2.25538 2.25385 2.25231 
2.25077 2.24923 2.24769 2.24615 2.24462 2.24308 2.24154 2.24 2.23846 
2.23692 2.23538 2.23385 2.23231 2.23077 2.22923 2.22769 2.22615 2.22462 
2.22308 2.22154 2.22 2.21846 2.21692 2.21538 2.21385 2.21231 2.21077 
2.20923 2.20769 2.20615 2.20462 2.20308 2.20154 2.2 2.19846 2.19692 
2.19538 2.19385 2.19231 2.18989 2.18747 2.18505 2.18264 2.18022 2.1778 
2.17538 2.17297 2.17055 2.16813 2.16571 2.1633 2.16088 2.15846 2.15604 
2.15363 2.15121 2.14879 2.14637 2.14396 2.14154 2.13912 2.1367 2.13429 
2.13187 2.12945 2.12703 2.12462 2.1222 2.11978 2.11736 2.11495 2.11253 
2.11011 2.10769 2.10527 2.10286 2.10044 2.09802 2.0956 2.09319 2.09077 
2.08835 2.08593 2.08352 2.0811 2.07868 2.07626 2.07385 2.07143 2.06901 
2.06659 2.06418 2.06176 2.05934 2.05692 2.05451 2.05209 2.04967 2.04725 
2.04484 2.04242 2.04 2.03758 2.03516 2.03275 2.03033 2.02791 2.02549 
2.02308 2.02066 2.01824 2.01582 2.01341 2.01099 2.00857 2.00615 2.00374 
2.00132 1.9989 1.99648 1.99407 1.99165 1.98923 1.98681 1.9844 1.98198 
1.97956 1.97714 1.97473 1.97231 1.96989 1.96747 1.96505 1.96264 1.96022 
1.9578 1.95538 1.95297 1.95055 1.94813 1.94571 1.9433 1.94088 1.93846 
1.93604 1.93363 1.93121 1.92879 1.92637 1.92396 1.92154 1.91912 1.9167 
1.91429 1.91187 1.90945 1.90703 1.90462 1.9022 1.89978 1.89736 1.89495 
1.89253 1.89011 1.88769 1.88527 1.88286 1.88044 1.87802 1.8756 1.87319 
1.87077 1.86835 1.86593 1.86352 1.8611 1.85868 1.85626 1.85385 1.85143 
1.84901 1.84659 1.84418 1.84176 1.83934 1.83692 1.83451 1.83209 1.82967 
1.82725 1.82484 1.82242 1.82 1.81758 1.81516 1.81275 1.81033 1.80791 
1.80549 1.80308 1.80066 1.79824 1.79582 1.79341 1.79099 1.78857 1.78615 
1.78374 1.78132 1.7789 1.77648 1.77407 1.77165 1.76923 1.76681 1.7644 
1.76198 1.75956 1.75714 1.75473 1.75231 1.74989 1.74747 1.74505 1.74264 
1.74022 1.7378 1.73538 1.73297 1.73055 1.72813 1.72571 1.7233 1.72088 
1.71846 1.71604 1.71363 1.71121 1.70879 1.70637 1.70396 1.70154 1.69912 
1.6967 1.69429 1.69187 1.68945 1.68703 1.68462 1.6822 1.67978 1.67736 
1.67495 1.67253 1.67011 1.66769 1.66527 1.66286 1.66044 1.65802 1.6556 
1.65319 1.65077 1.64835 1.64593 1.64352 1.6411 1.63868 1.63626 1.63385 
1.63143 1.62901 1.62659 1.62418 1.62176 1.61934 1.61692 1.61451 1.61209 
1.60967 1.60725 1.60484 1.60242 1.6 1.59758 1.59516 1.59275 1.59033 
1.58791 1.58549 1.58308 1.58066 1.57824 1.57582 1.57341 1.57099 1.56857 
1.56615 1.56374 1.56132 1.5589 1.55648 1.55407 1.55165 1.54923 1.54681 
1.5444 1.54198 1.53956 1.53714 1.53473 1.53231 1.52989 1.52747 1.52505 
1.52264 1.52022 1.5178 1.51538 1.51297 1.51055 1.50813 1.50571 1.5033 
1.50088 1.49846 1.49604 1.49363 1.49121 1.48879 1.48637 1.48396 1.48154 
1.47912 1.4767 1.47429 1.47187 1.46945 1.46703 1.46462 1.4622 1.45978 
1.45736 1.45495 1.45253 1.45011 1.44769 1.44527 1.44286 1.44044 1.43802 
1.4356 1.43319 1.43077 1.42835 1.42593 1.42352 1.4211 1.41868 1.41626 
1.41385 1.41143 1.40901 1.40659 1.40418 1.40176 1.39934 1.39692 1.39451 
1.39209 1.38967 1.38725 1.38484 1.38242 1.38 1.37758 1.37516 1.37275 
1.37033 1.36791 1.36549 1.36308 1.36066 1.35824 1.35582 1.35341 1.35099 
1.34857 1.34615 1.34374 1.34132 1.3389 1.33648 1.33407 1.33165 1.32923 
1.32681 1.3244 1.32198 1.31956 1.31714 1.31473 1.31231 1.30989 1.30747 
1.30505 1.30264 1.30022 1.2978 1.29538 1.29297 1.29055 1.28813 1.28571 
1.2833 1.28088 1.27846 1.27604 1.27363 1.27121 1.26879 1.26637 1.26396 
1.26154 1.25912 1.2567 1.25429 1.25187 1.24945 1.24703 1.24462 1.2422 
1.23978 1.23736 1.23495 1.23253 1.23011 1.22769 1.22527 1.22286 1.22044 
1.21802 1.2156 1.21319 1.21077 1.20835 1.20593 1.20352 1.2011 1.19868 
1.19626 1.19385 1.19143 1.18901 1.18659 1.18418 1.18176 1.17934 1.17692 
1.17451 1.17209 1.16967 1.16725 1.16484 1.16242 1.16 1.15758 1.15516 
1.15275 1.15033 1.14791 1.14549 1.14308 1.14066 1.13824 1.13582 1.13341 
1.13099 1.12857 1.12615 1.12374 1.12132 1.1189 1.11648 1.11407 1.11165 
1.10923 1.10681 1.1044 1.10198 1.09956 1.09714 1.09473 1.09231 1.08989 
1.08747 1.08505 1.08264 1.08022 1.0778 1.07538 1.07297 1.07055 1.06813 
1.06571 1.0633 1.06088 1.05846 1.05604 1.05363 1.05121 1.04879 1.04637 
1.04396 1.04154 1.03912 1.0367 1.03429 1.03187 1.02945 1.02703 1.02462 
1.0222 1.01978 1.01736 1.01495 1.01253 1.01011 1.00769 1.00527 1.00286 
1.00044 0.998022 0.995604 0.993187 0.990769 0.988352 0.985934 0.983516 0.981099 
0.978681 0.976264 0.973846 0.971429 0.969011 0.966593 0.964176 0.961758 0.959341 
0.956923 0.954505 0.952088 0.94967 0.947253 0.944835 0.942418 0.94 0.937582 
0.935165 0.932747 0.93033 0.927912 0.925495 0.923077 0.920659 0.918242 0.915824 
0.913407 0.910989 0.908571 0.906154 0.903736 0.901319 0.898901 0.896484 0.894066 
0.891648 0.889231 0.886813 0.884396 0.881978 0.87956 0.877143 0.874725 0.872308 
0.86989 0.867473 0.865055 0.862637 0.86022 0.857802 0.855385 0.852967 0.850549 
0.848132 0.845714 0.843297 0.840879 0.838462 0.836044 0.833626 0.831209 0.828791 
0.826374 0.823956 0.821538 0.819121 0.816703 0.814286 0.811868 0.809451 0.807033 
0.804615 0.802198 0.79978 0.797363 0.794945 0.792527 0.79011 0.787692 0.785275 
0.782857 0.78044 0.778022 0.775604 0.773187 0.770769 0.768352 0.765934 0.763516 
0.761099 0.758681 0.756264 0.753846 0.751429 0.749011 0.746593 0.744176 0.741758 
0.739341 0.736923 0.734505 0.732088 0.72967 0.727253 0.724835 0.722418 0.72 
0.717582 0.715165 0.712747 0.71033 0.707912 0.705495 0.703077 0.700659 0.698242 
0.695824 0.693407 0.690989 0.688571 0.686154 0.683736 0.681319 0.678901 0.676484 
0.674066 0.671648 0.669231 0.666813 0.664396 0.661978 0.65956 0.657143 0.654725 
0.652308 0.64989 0.647473 0.645055 0.642637 0.64022 0.637802 0.635385 0.632967 
0.630549 0.628132 0.625714 0.623297 0.620879 0.618462 0.616044 0.613626 0.611209 
0.608791 0.606374 0.603956 0.601538 0.599121 0.596703 0.594286 0.591868 0.589451 
0.587033 0.584615 0.582198 0.57978 0.577363 0.574945 0.572527 0.57011 0.567692 
0.565275 0.562857 0.56044 0.558022 0.555604 0.553187 0.550769 0.548352 0.545934 
0.543516 0.541099 0.538681 0.536264 0.533846 0.531429 0.529011 0.526593 0.524176 
0.521758 0.519341 0.516923 0.514505 0.512088 0.50967 0.507253 0.504835 0.502418 
0.5 1.22286 1.22044 1.21802 1.2156 1.21319 1.21077 1.20835 1.20593 
1.20352 1.2011 1.19868 1.19626 1.19385 1.19143 1.18901 1.18659 1.18418 
1.18176 1.17934 1.17692 1.17451 1.17209 1.16967 1.16725 1.16484 1.16242 
1.16 1.15758 1.15516 1.15275 1.15033 1.14791 1.14549 1.14308 1.14066 
1.13824 1.13582 1.13341 1.13099 1.12857 1.12615 1.12374 1.12132 1.1189 
1.11648 1.11407 1.11165 1.10923 1.10681 1.1044 1.10198 1.09956 1.09714 
1.09473 1.09231 1.08989 1.08747 1.08505 1.08264 1.08022 1.0778 1.07538 
1.07297 1.07055 1.06813 1.06571 1.0633 1.06088 1.05846 1.05604 1.05363 
1.05121 1.04879 1.04637 1.04396 1.04154 1.03912 1.0367 1.03429 1.03187 
1.02945 1.02703 1.02462 1.0222 1.01978 1.01736 1.01495 1.01253 1.01011 
1.00769 1.00527 1.00286 1.00044 0.998022 0.995604 0.993187 0.990769 0.988352 
0.985934 0.983516 0.981099 0.978681 0.976264 0.973846 0.971429 0.969011 0.966593 
0.964176 0.961758 0.959341 0.956923 0.954505 0.952088 0.94967 0.947253 0.944835 
0.942418 0.94 0.937582 0.935165 0.932747 0.93033 0.927912 0.925495 0.923077 
0.920659 0.918242 0.915824 0.913407 0.910989 0.908571 0.906154 0.903736 0.901319 
0.898901 0.896484 0.894066 0.891648 0.889231 0.886813 0.884396 0.881978 0.87956 
0.877143 0.874725 0.872308 0.86989 0.867473 0.865055 0.862637 0.86022 0.857802 
0.855385 0.852967 0.850549 0.848132 0.845714 0.843297 0.840879 0.838462 0.836044 
0.833626 0.831209 0.828791 0.826374 0.823956 0.821538 0.819121 0.816703 0.814286 
0.811868 0.809451 0.807033 0.804615 0.802198 0.79978 0.797363 0.794945 0.792527 
0.79011 0.787692 0.785275 0.782857 0.78044 0.778022 0.775604 0.773187 0.770769 
0.768352 0.765934 0.763516 0.761099 0.758681 0.756264 0.753846 0.751429 0.749011 
0.746593 0.744176 0.741758 0.739341 0.736923 0.734505 0.732088 0.72967 0.727253 
0.724835 0.722418 0.72 0.717582 0.715165 0.712747 0.71033 0.707912 0.705495 
0.703077 0.700659 0.698242 0.695824 0.693407 0.690989 0.688571 0.686154 0.683736 
0.681319 0.678901 0.676484 0.674066 0.671648 0.669231 0.666813 0.664396 0.661978 
0.65956 0.657143 0.654725 0.652308 0.64989 0.647473 0.645055 0.642637 0.64022 
0.637802 0.635385 0.632967 0.630549 0.628132 0.625714 0.623297 0.620879 0.618462 
0.616044 0.613626 0.611209 0.608791 0.606374 0.603956 0.601538 0.599121 0.596703 
0.594286 0.591868 0.589451 0.587033 0.584615 0.582198 0.57978 0.577363 0.574945 
0.572527 0.57011 0.567692 0.565275 0.562857 0.56044 0.558022 0.555604 0.553187 
0.550769 0.548352 0.545934 0.543516 0.541099 0.538681 0.536264 0.533846 0.531429 
0.529011 0.526593 0.524176 0.521758 0.519341 0.516923 0.514505 0.512088 0.50967 
0.507253 0.504835 0.502418 0.5 1.70577 1.70275 1.69973 1.6967 1.69368 
1.69066 1.68764 1.68462 1.68159 1.67857 1.67555 1.67253 1.66951 1.66648 
1.66346 1.66044 1.65742 1.6544 1.65137 1.64835 1.64533 1.64231 1.63929 
1.63626 1.63324 1.63022 1.6272 1.62418 1.62115 1.61813 1.61511 1.61209 
1.60907 1.60604 1.60302 1.6 1.59698 1.59396 1.59093 1.58791 1.58489 
1.58187 1.57885 1.57582 1.5728 1.56978 1.56676 1.56374 1.56071 1.55769 
1.55467 1.55165 1.54863 1.5456 1.54258 1.53956 1.53654 1.53352 1.53049 
1.52747 1.52445 1.52143 1.51841 1.51538 1.51236 1.50934 1.50632 1.5033 
1.50027 1.49725 1.49423 1.49121 1.48819 1.48516 1.48214 1.47912 1.4761 
1.47308 1.47005 1.46703 1.46401 1.46099 1.45797 1.45495 1.45192 1.4489 
1.44588 1.44286 1.43984 1.43681 1.43379 1.43077 1.42775 1.42473 1.4217 
1.41868 1.41566 1.41264 1.40962 1.40659 1.40357 1.40055 1.39753 1.39451 
1.39148 1.38846 1.38544 1.38242 1.3794 1.37637 1.37335 1.37033 1.36731 
1.36429 1.36126 1.35824 1.35522 1.3522 1.34918 1.34615 1.34313 1.34011 
1.33709 1.33407 1.33104 1.32802 1.325 1.32198 1.31896 1.31593 1.31291 
1.30989 1.30687 1.30385 1.30082 1.2978 1.29478 1.29176 1.28874 1.28571 
1.28269 1.27967 1.27665 1.27363 1.2706 1.26758 1.26456 1.26154 1.25852 
1.25549 1.25247 1.24945 1.24643 1.24341 1.24038 1.23736 1.23434 1.23132 
1.2283 1.22527 1.22225 1.21923 1.21621 1.21319 1.21016 1.20714 1.20412 
1.2011 1.19808 1.19505 1.19203 1.18901 1.18599 1.18297 1.17995 1.17692 
1.1739 1.17088 1.16786 1.16484 1.16181 1.15879 1.15577 1.15275 1.14973 
1.1467 1.14368 1.14066 1.13764 1.13462 1.13159 1.12857 1.12555 1.12253 
1.11951 1.11648 1.11346 1.11044 1.10742 1.1044 1.10137 1.09835 1.09533 
1.09231 1.08929 1.08626 1.08324 1.08022 1.0772 1.07418 1.07115 1.06813 
1.06511 1.06209 1.05907 1.05604 1.05302 1.05 1.04698 1.04396 1.04093 
1.03791 1.03489 1.03187 1.02885 1.02582 1.0228 1.01978 1.01676 1.01374 
1.01071 1.00769 1.00467 1.00165 0.998626 0.995604 0.992582 0.98956 0.986538 
0.983516 0.980495 0.977473 0.974451 0.971429 0.968407 0.965385 0.962363 0.959341 
0.956319 0.953297 0.950275 0.947253 0.944231 0.941209 0.938187 0.935165 0.932143 
0.929121 0.926099 0.923077 0.920055 0.917033 0.914011 0.910989 0.907967 0.904945 
0.901923 0.898901 0.895879 0.892857 0.889835 0.886813 0.883791 0.880769 0.877747 
0.874725 0.871703 0.868681 0.865659 0.862637 0.859615 0.856593 0.853571 0.850549 
0.847527 0.844505 0.841484 0.838462 0.83544 0.832418 0.829396 0.826374 0.823352 
0.82033 0.817308 0.814286 0.811264 0.808242 0.80522 0.802198 0.799176 0.796154 
0.793132 0.79011 0.787088 0.784066 0.781044 0.778022 0.775 0.771978 0.768956 
0.765934 0.762912 0.75989 0.756868 0.753846 0.750824 0.747802 0.74478 0.741758 
0.738736 0.735714 0.732692 0.72967 0.726648 0.723626 0.720604 0.717582 0.71456 
0.711538 0.708516 0.705495 0.702473 0.699451 0.696429 0.693407 0.690385 0.687363 
0.684341 0.681319 0.678297 0.675275 0.672253 0.669231 0.666209 0.663187 0.660165 
0.657143 0.654121 0.651099 0.648077 0.645055 0.642033 0.639011 0.635989 0.632967 
0.629945 0.626923 0.623901 0.620879 0.617857 0.614835 0.611813 0.608791 0.605769 
0.602747 0.599725 0.596703 0.593681 0.590659 0.587637 0.584615 0.581593 0.578571 
0.575549 0.572527 0.569505 0.566484 0.563462 0.56044 0.557418 0.554396 0.551374 
0.548352 0.54533 0.542308 0.539286 0.536264 0.533242 0.53022 0.527198 0.524176 
0.521154 0.518132 0.51511 0.512088 0.509066 0.506044 0.503022 0.5 2.19077 
2.18923 2.18769 2.18615 2.18462 2.18308 2.18154 2.18 2.17846 2.17692 
2.17538 2.17385 2.17231 2.17077 2.16923 2.16769 2.16615 2.16462 2.16308 
2.16154 2.16 2.15846 2.15692 2.15538 2.15385 2.15231 2.15077 2.14923 
2.14769 2.14615 2.14462 2.14308 2.14154 2.14 2.13846 2.13692 2.13538 
2.13385 2.13231 2.13077 2.12923 2.12769 2.12615 2.12462 2.12308 2.12154 
2.12 2.11846 2.11692 2.11538 2.11385 2.11231 2.11077 2.10923 2.10769 
2.10615 2.10462 2.10308 2.10154 2.1 2.09846 2.09692 2.09538 2.09385 
2.09231 2.09077 2.08923 2.08769 2.08615 2.08462 2.08308 2.08154 2.08 
2.07846 2.07692 2.07538 2.07385 2.07231 2.07077 2.06923 2.06769 2.06615 
2.06462 2.06308 2.06154 2.06 2.05846 2.05692 2.05538 2.05385 2.05231 
2.05077 2.04923 2.04769 2.04615 2.04462 2.04308 2.04154 2.04 2.03846 
2.03692 2.03538 2.03385 2.03231 2.03077 2.02923 2.02769 2.02615 2.02462 
2.02308 2.02154 2.02 2.01846 2.01692 2.01538 2.01385 2.01231 2.01077 
2.00923 2.00769 2.00615 2.00462 2.00308 2.00154 2 1.99846 1.99692 
1.99538 1.99385 1.99231 1.99077 1.98923 1.98769 1.98615 1.98462 1.98308 
1.98154 1.98 1.97846 1.97692 1.97538 1.97385 1.97231 1.97077 1.96923 
1.96769 1.96615 1.96462 1.96308 1.96154 1.96 1.95846 1.95692 1.95538 
1.95385 1.95231 1.95077 1.94923 1.94769 1.94615 1.94462 1.94308 1.94154 
1.94 1.93846 1.93692 1.93538 1.93385 1.93231 1.93077 1.92923 1.92769 
1.92615 1.92462 1.92308 1.92154 1.92 1.91846 1.91692 1.91538 1.91385 
1.91231 1.91077 1.90923 1.90769 1.90615 1.90462 1.90308 1.90154 1.9 
1.89846 1.89692 1.89538 1.89385 1.89231 1.89077 1.88923 1.88769 1.88615 
1.88462 1.88185 1.87908 1.87631 1.87354 1.87077 1.868 1.86523 1.86246 
1.85969 1.85692 1.85415 1.85138 1.84862 1.84585 1.84308 1.84031 1.83754 
1.83477 1.832 1.82923 1.82646 1.82369 1.82092 1.81815 1.81538 1.81262 
1.80985 1.80708 1.80431 1.80154 1.79877 1.796 1.79323 1.79046 1.78769 
1.78492 1.78215 1.77938 1.77662 1.77385 1.77108 1.76831 1.76554 1.76277 
1.76 1.75723 1.75446 1.75169 1.74892 1.74615 1.74338 1.74062 1.73785 
1.73508 1.73231 1.72954 1.72677 1.724 1.72123 1.71846 1.71569 1.71292 
1.71015 1.70738 1.70462 1.70185 1.69908 1.69631 1.69354 1.69077 1.688 
1.68523 1.68246 1.67969 1.67692 1.67415 1.67138 1.66862 1.66585 1.66308 
1.66031 1.65754 1.65477 1.652 1.64923 1.64646 1.64369 1.64092 1.63815 
1.63538 1.63262 1.62985 1.62708 1.62431 1.62154 1.61877 1.616 1.61323 
1.61046 1.60769 1.60492 1.60215 1.59938 1.59662 1.59385 1.59108 1.58831 
1.58554 1.58277 1.58 1.57723 1.57446 1.57169 1.56892 1.56615 1.56338 
1.56062 1.55785 1.55508 1.55231 1.54954 1.54677 1.544 1.54123 1.53846 
1.53569 1.53292 1.53015 1.52738 1.52462 1.52185 1.51908 1.51631 1.51354 
1.51077 1.508 1.50523 1.50246 1.49969 1.49692 1.49415 1.49138 1.48862 
1.48585 1.48308 1.48031 1.47754 1.47477 1.472 1.46923 1.46646 1.46369 
1.46092 1.45815 1.45538 1.45262 1.44985 1.44708 1.44431 1.44154 1.43877 
1.436 1.43323 1.43046 1.42769 1.42492 1.42215 1.41938 1.41662 1.41385 
1.41108 1.40831 1.40554 1.40277 1.4 1.39723 1.39446 1.39169 1.38892 
1.38615 1.38338 1.38062 1.37785 1.37508 1.37231 1.36954 1.36677 1.364 
1.36123 1.35846 1.35569 1.35292 1.35015 1.34738 1.34462 1.34185 1.33908 
1.33631 1.33354 1.33077 1.328 1.32523 1.32246 1.31969 1.31692 1.31415 
1.31138 1.30862 1.30585 1.30308 1.30031 1.29754 1.29477 1.292 1.28923 
1.28646 1.28369 1.28092 1.27815 1.27538 1.27262 1.26985 1.26708 1.26431 
1.26154 1.25877 1.256 1.25323 1.25046 1.24769 1.24492 1.24215 1.23938 
1.23662 1.23385 1.23108 1.22831 1.22554 1.22277 1.22 1.21723 1.21446 
1.21169 1.20892 1.20615 1.20338 1.20062 1.19785 1.19508 1.19231 1.18954 
1.18677 1.184 1.18123 1.17846 1.17569 1.17292 1.17015 1.16738 1.16462 
1.16185 1.15908 1.15631 1.15354 1.15077 1.148 1.14523 1.14246 1.13969 
1.13692 1.13415 1.13138 1.12862 1.12585 1.12308 1.12031 1.11754 1.11477 
1.112 1.10923 1.10646 1.10369 1.10092 1.09815 1.09538 1.09262 1.08985 
1.08708 1.08431 1.08154 1.07877 1.076 1.07323 1.07046 1.06769 1.06492 
1.06215 1.05938 1.05662 1.05385 1.05108 1.04831 1.04554 1.04277 1.04 
1.03723 1.03446 1.03169 1.02892 1.02615 1.02338 1.02062 1.01785 1.01508 
1.01231 1.00954 1.00677 1.004 1.00123 0.998462 0.995692 0.992923 0.990154 
0.987385 0.984615 0.981846 0.979077 0.976308 0.973538 0.970769 0.968 0.965231 
0.962462 0.959692 0.956923 0.954154 0.951385 0.948615 0.945846 0.943077 0.940308 
0.937538 0.934769 0.932 0.929231 0.926462 0.923692 0.920923 0.918154 0.915385 
0.912615 0.909846 0.907077 0.904308 0.901538 0.898769 0.896 0.893231 0.890462 
0.887692 0.884923 0.882154 0.879385 0.876615 0.873846 0.871077 0.868308 0.865538 
0.862769 0.86 0.857231 0.854462 0.851692 0.848923 0.846154 0.843385 0.840615 
0.837846 0.835077 0.832308 0.829538 0.826769 0.824 0.821231 0.818462 0.815692 
0.812923 0.810154 0.807385 0.804615 0.801846 0.799077 0.796308 0.793538 0.790769 
0.788 0.785231 0.782462 0.779692 0.776923 0.774154 0.771385 0.768615 0.765846 
0.763077 0.760308 0.757538 0.754769 0.752 0.749231 0.746462 0.743692 0.740923 
0.738154 0.735385 0.732615 0.729846 0.727077 0.724308 0.721538 0.718769 0.716 
0.713231 0.710462 0.707692 0.704923 0.702154 0.699385 0.696615 0.693846 0.691077 
0.688308 0.685538 0.682769 0.68 0.677231 0.674462 0.671692 0.668923 0.666154 
0.663385 0.660615 0.657846 0.655077 0.652308 0.649538 0.646769 0.644 0.641231 
0.638462 0.635692 0.632923 0.630154 0.627385 0.624615 0.621846 0.619077 0.616308 
0.613538 0.610769 0.608 0.605231 0.602462 0.599692 0.596923 0.594154 0.591385 
0.588615 0.585846 0.583077 0.580308 0.577538 0.574769 0.572 0.569231 0.566462 
0.563692 0.560923 0.558154 0.555385 0.552615 0.549846 0.547077 0.544308 0.541538 
0.538769 0.536 0.533231 0.530462 0.527692 0.524923 0.522154 0.519385 0.516615 
0.513846 0.511077 0.508308 0.505538 0.502769 0.5 1.88308 1.88154 1.88 
1.87846 1.87692 1.87538 1.87385 1.87231 1.87077 1.86923 1.86769 1.86615 
1.86462 1.86308 1.86154 1.86 1.85846 1.85692 1.85538 1.85385 1.85231 
1.85077 1.84923 1.84769 1.84615 1.84462 1.84308 1.84154 1.84 1.83846 
1.83692 1.83538 1.83385 1.83231 1.83077 1.82923 1.82769 1.82615 1.82462 
1.82308 1.82154 1.82 1.81846 1.81692 1.81538 1.81385 1.81231 1.81077 
1.80923 1.80769 1.80615 1.80462 1.80308 1.80154 1.8 1.79846 1.79692 
1.79538 1.79385 1.79231 1.79077 1.78923 1.78769 1.78615 1.78462 1.78308 
1.78154 1.78 1.77846 1.77692 1.77538 1.77385 1.77231 1.77077 1.76923 
1.76769 1.76615 1.76462 1.76308 1.76154 1.76 1.75846 1.75692 1.75538 
1.75385 1.75231 1.75077 1.74923 1.74769 1.74615 1.74462 1.74308 1.74154 
1.74 1.73846 1.73692 1.73538 1.73385 1.73231 1.73077 1.72923 1.72769 
1.72615 1.72462 1.72308 1.72154 1.72 1.71846 1.71692 1.71538 1.71385 