# vtk DataFile Version 3.0
vtk output
ASCII
DATASET POLYDATA
POINTS 601 float
50 0 0 49.9999 0.0999999 0 49.9996 0.199999 0 
49.9991 0.299998 0 49.9984 0.399996 0 49.9975 0.499992 0 
49.9964 0.599986 0 49.9951 0.699977 0 49.9936 0.799966 0 
49.9919 0.899951 0 49.99 0.999933 0 49.9879 1.09991 0 
49.9856 1.19988 0 49.9831 1.29985 0 49.9804 1.39982 0 
49.9775 1.49978 0 49.9744 1.59973 0 49.9711 1.69967 0 
49.9676 1.79961 0 49.9639 1.89954 0 49.96 1.99947 0 
49.9559 2.09938 0 49.9516 2.19929 0 49.9471 2.29919 0 
49.9424 2.39908 0 49.9375 2.49896 0 49.9324 2.59883 0 
49.9271 2.69869 0 49.9216 2.79854 0 49.9159 2.89837 0 
49.91 2.9982 0 49.9039 3.09801 0 49.8976 3.19782 0 
49.8911 3.2976 0 49.8844 3.39738 0 49.8775 3.49714 0 
49.8705 3.59689 0 49.8632 3.69662 0 49.8557 3.79634 0 
49.848 3.89605 0 49.8401 3.99573 0 49.832 4.09541 0 
49.8237 4.19506 0 49.8152 4.2947 0 49.8065 4.39432 0 
49.7976 4.49393 0 49.7885 4.59351 0 49.7793 4.69308 0 
49.7698 4.79263 0 49.7601 4.89216 0 49.7502 4.99167 0 
49.7401 5.09116 0 49.7298 5.19063 0 49.7194 5.29008 0 
49.7087 5.38951 0 49.6978 5.48891 0 49.6867 5.5883 0 
49.6755 5.68766 0 49.664 5.787 0 49.6523 5.88632 0 
49.6404 5.98561 0 49.6284 6.08488 0 49.6161 6.18412 0 
49.6036 6.28334 0 49.591 6.38254 0 49.5781 6.48171 0 
49.565 6.58085 0 49.5518 6.67997 0 49.5383 6.77906 0 
49.5247 6.87812 0 49.5108 6.97716 0 49.4967 7.07616 0 
49.4825 7.17514 0 49.468 7.27409 0 49.4534 7.37301 0 
49.4386 7.47191 0 49.4235 7.57077 0 49.4083 7.6696 0 
49.3928 7.7684 0 49.3772 7.86717 0 49.3614 7.96591 0 
49.3453 8.06462 0 49.3291 8.16329 0 49.3127 8.26193 0 
49.2961 8.36054 0 49.2792 8.45912 0 49.2622 8.55766 0 
49.245 8.65617 0 49.2276 8.75464 0 49.21 8.85308 0 
49.1922 8.95148 0 49.1742 9.04984 0 49.156 9.14818 0 
49.1376 9.24647 0 49.119 9.34473 0 49.1002 9.44294 0 
49.0812 9.54113 0 49.062 9.63927 0 49.0427 9.73737 0 
49.0231 9.83544 0 49.0033 9.93347 0 48.9834 10.0315 0 
48.9632 10.1294 0 48.9428 10.2273 0 48.9223 10.3252 0 
48.9015 10.423 0 48.8806 10.5208 0 48.8595 10.6185 0 
48.8381 10.7162 0 48.8166 10.8139 0 48.7949 10.9115 0 
48.773 11.009 0 48.7508 11.1066 0 48.7285 11.2041 0 
48.706 11.3015 0 48.6833 11.3989 0 48.6604 11.4962 0 
48.6373 11.5935 0 48.6141 11.6908 0 48.5906 11.788 0 
48.5669 11.8851 0 48.543 11.9822 0 48.519 12.0793 0 
48.4947 12.1763 0 48.4703 12.2733 0 48.4456 12.3702 0 
48.4208 12.4671 0 48.3958 12.5639 0 48.3705 12.6606 0 
48.3451 12.7574 0 48.3195 12.854 0 48.2937 12.9506 0 
48.2677 13.0472 0 48.2415 13.1437 0 48.2151 13.2402 0 
48.1885 13.3366 0 48.1618 13.4329 0 48.1348 13.5292 0 
48.1077 13.6255 0 48.0803 13.7216 0 48.0528 13.8178 0 
48.025 13.9139 0 47.9971 14.0099 0 47.969 14.1058 0 
47.9407 14.2018 0 47.9122 14.2976 0 47.8835 14.3934 0 
47.8546 14.4891 0 47.8255 14.5848 0 47.7963 14.6804 0 
47.7668 14.776 0 47.7372 14.8715 0 47.7073 14.967 0 
47.6773 15.0623 0 47.6471 15.1577 0 47.6167 15.2529 0 
47.5861 15.3481 0 47.5553 15.4433 0 47.5243 15.5384 0 
47.4931 15.6334 0 47.4618 15.7283 0 47.4302 15.8232 0 
47.3985 15.918 0 47.3665 16.0128 0 47.3344 16.1075 0 
47.3021 16.2022 0 47.2696 16.2967 0 47.2369 16.3912 0 
47.2041 16.4857 0 47.171 16.58 0 47.1377 16.6744 0 
47.1043 16.7686 0 47.0707 16.8628 0 47.0368 16.9569 0 
47.0028 17.0509 0 46.9686 17.1449 0 46.9343 17.2388 0 
46.8997 17.3326 0 46.8649 17.4264 0 46.83 17.5201 0 
46.7948 17.6137 0 46.7595 17.7073 0 46.724 17.8007 0 
46.6883 17.8942 0 46.6524 17.9875 0 46.6164 18.0808 0 
46.5801 18.174 0 46.5437 18.2671 0 46.507 18.3601 0 
46.4702 18.4531 0 46.4332 18.546 0 46.396 18.6389 0 
46.3587 18.7316 0 46.3211 18.8243 0 46.2834 18.9169 0 
46.2455 19.0094 0 46.2073 19.1019 0 46.169 19.1943 0 
46.1306 19.2866 0 46.0919 19.3788 0 46.0531 19.4709 0 
46.0192 19.5506 -0.05 45.9852 19.6303 -0.0999999 45.951 19.7099 -0.15 
45.9167 19.7894 -0.199999 45.8821 19.8688 -0.249998 45.8474 19.9481 -0.299996 
45.8125 20.0273 -0.349994 45.7774 20.1065 -0.399991 45.7421 20.1856 -0.449988 
45.7066 20.2646 -0.499983 45.671 20.3435 -0.549978 45.6352 20.4224 -0.599971 
45.5991 20.5011 -0.649963 45.5629 20.5798 -0.699954 45.5266 20.6584 -0.749944 
45.49 20.7369 -0.799932 45.4533 20.8153 -0.849918 45.4164 20.8936 -0.899903 
45.3793 20.9719 -0.949886 45.342 21.05 -0.999867 45.3045 21.1281 -1.04985 
45.2669 21.2061 -1.09982 45.2291 21.284 -1.1498 45.1911 21.3618 -1.19977 
45.1529 21.4395 -1.24974 45.1146 21.5171 -1.29971 45.076 21.5947 -1.34967 
45.0373 21.6721 -1.39963 44.9984 21.7495 -1.44959 44.9594 21.8267 -1.49955 
44.9201 21.9039 -1.5495 44.8807 21.981 -1.59945 44.8411 22.058 -1.6494 
44.8013 22.1349 -1.69935 44.7614 22.2117 -1.74929 44.7213 22.2884 -1.79922 
44.681 22.365 -1.84916 44.6405 22.4415 -1.89909 44.5998 22.5179 -1.94901 
44.559 22.5942 -1.99893 44.518 22.6705 -2.04885 44.4768 22.7466 -2.09877 
44.4355 22.8226 -2.14868 44.3939 22.8985 -2.19858 44.3522 22.9744 -2.24848 
44.3104 23.0501 -2.29838 44.2683 23.1258 -2.34827 44.2261 23.2013 -2.39816 
44.1837 23.2767 -2.44804 44.1411 23.3521 -2.49792 44.0984 23.4273 -2.54779 
44.0555 23.5025 -2.59766 44.0124 23.5775 -2.64752 43.9692 23.6524 -2.69738 
43.9257 23.7272 -2.74723 43.8821 23.802 -2.79708 43.8384 23.8766 -2.84692 
43.7944 23.9511 -2.89675 43.7503 24.0255 -2.94658 43.7061 24.0998 -2.99641 
43.6616 24.174 -3.04622 43.617 24.2481 -3.09603 43.5722 24.3221 -3.14584 
43.5273 24.396 -3.19564 43.4821 24.4698 -3.24543 43.4368 24.5435 -3.29522 
43.3914 24.617 -3.345 43.3458 24.6905 -3.39477 43.3 24.7638 -3.44454 
43.254 24.8371 -3.49429 43.2079 24.9102 -3.54405 43.1616 24.9832 -3.59379 
43.1151 25.0561 -3.64353 43.0685 25.1289 -3.69326 43.0217 25.2016 -3.74298 
42.9748 25.2742 -3.7927 42.9277 25.3466 -3.84241 42.8804 25.419 -3.89211 
42.8329 25.4912 -3.9418 42.7853 25.5633 -3.99149 42.7375 25.6354 -4.04117 
42.6896 25.7072 -4.09084 42.6415 25.779 -4.1405 42.5932 25.8507 -4.19015 
42.5448 25.9222 -4.23979 42.4962 25.9937 -4.28943 42.4475 26.065 -4.33906 
42.3986 26.1362 -4.38868 42.3495 26.2073 -4.43829 42.3003 26.2782 -4.48789 
42.2509 26.3491 -4.53748 42.2013 26.4198 -4.58707 42.1516 26.4904 -4.63664 
42.1017 26.5609 -4.68621 42.0517 26.6313 -4.73576 42.0015 26.7016 -4.78531 
41.9512 26.7717 -4.83485 41.9007 26.8417 -4.88437 41.85 26.9116 -4.93389 
41.7992 26.9814 -4.9834 41.7482 27.051 -5.0329 41.6971 27.1205 -5.08239 
41.6458 27.1899 -5.13187 41.5943 27.2592 -5.18133 41.5427 27.3284 -5.23079 
41.491 27.3974 -5.28024 41.4391 27.4663 -5.32968 41.387 27.5351 -5.3791 
41.3348 27.6038 -5.42852 41.2824 27.6723 -5.47792 41.2299 27.7407 -5.52732 
41.1772 27.809 -5.5767 41.1243 27.8771 -5.62607 41.0714 27.9452 -5.67544 
41.0182 28.0131 -5.72479 40.9649 28.0809 -5.77412 40.9115 28.1485 -5.82345 
40.8579 28.216 -5.87277 40.8041 28.2834 -5.92207 40.7502 28.3507 -5.97136 
40.6962 28.4178 -6.02065 40.642 28.4848 -6.06991 40.5877 28.5517 -6.11917 
40.5332 28.6184 -6.16842 40.4785 28.685 -6.21765 40.4237 28.7515 -6.26687 
40.3688 28.8178 -6.31608 40.3137 28.8841 -6.36527 40.2585 28.9501 -6.41446 
40.2031 29.0161 -6.46363 40.1476 29.0819 -6.51279 40.0919 29.1476 -6.56193 
40.0361 29.2131 -6.61106 39.9801 29.2785 -6.66018 39.924 29.3438 -6.70929 
39.8677 29.409 -6.75838 39.8113 29.474 -6.80746 39.7548 29.5389 -6.85653 
39.6981 29.6036 -6.90558 39.6413 29.6682 -6.95462 39.5843 29.7327 -7.00365 
39.5272 29.797 -7.05266 39.4699 29.8612 -7.10166 39.4125 29.9252 -7.15064 
39.355 29.9892 -7.19961 39.2973 30.0529 -7.24857 39.2395 30.1166 -7.29751 
39.1815 30.1801 -7.34644 39.1234 30.2434 -7.39535 39.0652 30.3067 -7.44425 
39.0068 30.3697 -7.49314 38.9483 30.4327 -7.54201 38.8896 30.4955 -7.59086 
38.8309 30.5581 -7.6397 38.7719 30.6206 -7.68853 38.7129 30.683 -7.73734 
38.6537 30.7453 -7.78613 38.5943 30.8074 -7.83491 38.5348 30.8693 -7.88368 
38.4752 30.9311 -7.93243 38.4155 30.9928 -7.98116 38.3556 31.0543 -8.02988 
38.2956 31.1157 -8.07858 38.2354 31.1769 -8.12727 38.1752 31.238 -8.17594 
38.1147 31.2989 -8.22459 38.0542 31.3597 -8.27323 37.9935 31.4204 -8.32185 
37.9327 31.4809 -8.37046 37.8718 31.5412 -8.41905 37.8107 31.6014 -8.46763 
37.7495 31.6615 -8.51618 37.6882 31.7214 -8.56473 37.6267 31.7812 -8.61325 
37.5651 31.8408 -8.66176 37.5034 31.9003 -8.71025 37.4415 31.9596 -8.75872 
37.3795 32.0188 -8.80718 37.3174 32.0778 -8.85562 37.2552 32.1367 -8.90404 
37.1928 32.1954 -8.95245 37.1304 32.254 -9.00084 37.0677 32.3124 -9.04921 
37.005 32.3707 -9.09756 36.9422 32.4288 -9.1459 36.8792 32.4868 -9.19422 
36.816 32.5447 -9.24252 36.7528 32.6023 -9.2908 36.6895 32.6599 -9.33906 
36.626 32.7172 -9.38731 36.5624 32.7744 -9.43554 36.4986 32.8315 -9.48375 
36.4348 32.8884 -9.53194 36.3708 32.9452 -9.58011 36.3067 33.0018 -9.62827 
36.2425 33.0582 -9.67641 36.1782 33.1145 -9.72452 36.1137 33.1707 -9.77262 
36.0492 33.2267 -9.8207 35.9845 33.2825 -9.86877 46.0192 19.5506 0.05 
45.9852 19.6303 0.0999999 45.951 19.7099 0.15 45.9167 19.7894 0.199999 
45.8821 19.8688 0.249998 45.8474 19.9481 0.299996 45.8125 20.0273 0.349994 
45.7774 20.1065 0.399991 45.7421 20.1856 0.449988 45.7066 20.2646 0.499983 
45.671 20.3435 0.549978 45.6352 20.4224 0.599971 45.5991 20.5011 0.649963 
45.5629 20.5798 0.699954 45.5266 20.6584 0.749944 45.49 20.7369 0.799932 
45.4533 20.8153 0.849918 45.4164 20.8936 0.899903 45.3793 20.9719 0.949886 
45.342 21.05 0.999867 45.3045 21.1281 1.04985 45.2669 21.2061 1.09982 
45.2291 21.284 1.1498 45.1911 21.3618 1.19977 45.1529 21.4395 1.24974 
45.1146 21.5171 1.29971 45.076 21.5947 1.34967 45.0373 21.6721 1.39963 
44.9984 21.7495 1.44959 44.9594 21.8267 1.49955 44.9201 21.9039 1.5495 
44.8807 21.981 1.59945 44.8411 22.058 1.6494 44.8013 22.1349 1.69935 
44.7614 22.2117 1.74929 44.7213 22.2884 1.79922 44.681 22.365 1.84916 
44.6405 22.4415 1.89909 44.5998 22.5179 1.94901 44.559 22.5942 1.99893 
44.518 22.6705 2.04885 44.4768 22.7466 2.09877 44.4355 22.8226 2.14868 
44.3939 22.8985 2.19858 44.3522 22.9744 2.24848 44.3104 23.0501 2.29838 
44.2683 23.1258 2.34827 44.2261 23.2013 2.39816 44.1837 23.2767 2.44804 
44.1411 23.3521 2.49792 44.0984 23.4273 2.54779 44.0555 23.5025 2.59766 
44.0124 23.5775 2.64752 43.9692 23.6524 2.69738 43.9257 23.7272 2.74723 
43.8821 23.802 2.79708 43.8384 23.8766 2.84692 43.7944 23.9511 2.89675 
43.7503 24.0255 2.94658 43.7061 24.0998 2.99641 43.6616 24.174 3.04622 
43.617 24.2481 3.09603 43.5722 24.3221 3.14584 43.5273 24.396 3.19564 
43.4821 24.4698 3.24543 43.4368 24.5435 3.29522 43.3914 24.617 3.345 
43.3458 24.6905 3.39477 43.3 24.7638 3.44454 43.254 24.8371 3.49429 
43.2079 24.9102 3.54405 43.1616 24.9832 3.59379 43.1151 25.0561 3.64353 
43.0685 25.1289 3.69326 43.0217 25.2016 3.74298 42.9748 25.2742 3.7927 
42.9277 25.3466 3.84241 42.8804 25.419 3.89211 42.8329 25.4912 3.9418 
42.7853 25.5633 3.99149 42.7375 25.6354 4.04117 42.6896 25.7072 4.09084 
42.6415 25.779 4.1405 42.5932 25.8507 4.19015 42.5448 25.9222 4.23979 
42.4962 25.9937 4.28943 42.4475 26.065 4.33906 42.3986 26.1362 4.38868 
42.3495 26.2073 4.43829 42.3003 26.2782 4.48789 42.2509 26.3491 4.53748 
42.2013 26.4198 4.58707 42.1516 26.4904 4.63664 42.1017 26.5609 4.68621 
42.0517 26.6313 4.73576 42.0015 26.7016 4.78531 41.9512 26.7717 4.83485 
41.9007 26.8417 4.88437 41.85 26.9116 4.93389 41.7992 26.9814 4.9834 
41.7482 27.051 5.0329 41.6971 27.1205 5.08239 41.6458 27.1899 5.13187 
41.5943 27.2592 5.18133 41.5427 27.3284 5.23079 41.491 27.3974 5.28024 
41.4391 27.4663 5.32968 41.387 27.5351 5.3791 41.3348 27.6038 5.42852 
41.2824 27.6723 5.47792 41.2299 27.7407 5.52732 41.1772 27.809 5.5767 
41.1243 27.8771 5.62607 41.0714 27.9452 5.67544 41.0182 28.0131 5.72479 
40.9649 28.0809 5.77412 40.9115 28.1485 5.82345 40.8579 28.216 5.87277 
40.8041 28.2834 5.92207 40.7502 28.3507 5.97136 40.6962 28.4178 6.02065 
40.642 28.4848 6.06991 40.5877 28.5517 6.11917 40.5332 28.6184 6.16842 
40.4785 28.685 6.21765 40.4237 28.7515 6.26687 40.3688 28.8178 6.31608 
40.3137 28.8841 6.36527 40.2585 28.9501 6.41446 40.2031 29.0161 6.46363 
40.1476 29.0819 6.51279 40.0919 29.1476 6.56193 40.0361 29.2131 6.61106 
39.9801 29.2785 6.66018 39.924 29.3438 6.70929 39.8677 29.409 6.75838 
39.8113 29.474 6.80746 39.7548 29.5389 6.85653 39.6981 29.6036 6.90558 
39.6413 29.6682 6.95462 39.5843 29.7327 7.00365 39.5272 29.797 7.05266 
39.4699 29.8612 7.10166 39.4125 29.9252 7.15064 39.355 29.9892 7.19961 
39.2973 30.0529 7.24857 39.2395 30.1166 7.29751 39.1815 30.1801 7.34644 
39.1234 30.2434 7.39535 39.0652 30.3067 7.44425 39.0068 30.3697 7.49314 
38.9483 30.4327 7.54201 38.8896 30.4955 7.59086 38.8309 30.5581 7.6397 
38.7719 30.6206 7.68853 38.7129 30.683 7.73734 38.6537 30.7453 7.78613 
38.5943 30.8074 7.83491 38.5348 30.8693 7.88368 38.4752 30.9311 7.93243 
38.4155 30.9928 7.98116 38.3556 31.0543 8.02988 38.2956 31.1157 8.07858 
38.2354 31.1769 8.12727 38.1752 31.238 8.17594 38.1147 31.2989 8.22459 
38.0542 31.3597 8.27323 37.9935 31.4204 8.32185 37.9327 31.4809 8.37046 
37.8718 31.5412 8.41905 37.8107 31.6014 8.46763 37.7495 31.6615 8.51618 
37.6882 31.7214 8.56473 37.6267 31.7812 8.61325 37.5651 31.8408 8.66176 
37.5034 31.9003 8.71025 37.4415 31.9596 8.75872 37.3795 32.0188 8.80718 
37.3174 32.0778 8.85562 37.2552 32.1367 8.90404 37.1928 32.1954 8.95245 
37.1304 32.254 9.00084 37.0677 32.3124 9.04921 37.005 32.3707 9.09756 
36.9422 32.4288 9.1459 36.8792 32.4868 9.19422 36.816 32.5447 9.24252 
36.7528 32.6023 9.2908 36.6895 32.6599 9.33906 36.626 32.7172 9.38731 
36.5624 32.7744 9.43554 36.4986 32.8315 9.48375 36.4348 32.8884 9.53194 
36.3708 32.9452 9.58011 36.3067 33.0018 9.62827 36.2425 33.0582 9.67641 
36.1782 33.1145 9.72452 36.1137 33.1707 9.77262 36.0492 33.2267 9.8207 
35.9845 33.2825 9.86877 
LINES 3 606
201 0 1 2 3 4 5 6 7 8 9 10 11 12 13 14 15 16 17 18 19 20 21 22 23 24 25 26 27 28 29 30 31 32 33 34 35 36 37 38 39 40 41 42 43 44 45 46 47 48 49 50 51 52 53 54 55 56 57 58 59 60 61 62 63 64 65 66 67 68 69 70 71 72 73 74 75 76 77 78 79 80 81 82 83 84 85 86 87 88 89 90 91 92 93 94 95 96 97 98 99 100 101 102 103 104 105 106 107 108 109 110 111 112 113 114 115 116 117 118 119 120 121 122 123 124 125 126 127 128 129 130 131 132 133 134 135 136 137 138 139 140 141 142 143 144 145 146 147 148 149 150 151 152 153 154 155 156 157 158 159 160 161 162 163 164 165 166 167 168 169 170 171 172 173 174 175 176 177 178 179 180 181 182 183 184 185 186 187 188 189 190 191 192 193 194 195 196 197 198 199 200 
201 200 201 202 203 204 205 206 207 208 209 210 211 212 213 214 215 216 217 218 219 220 221 222 223 224 225 226 227 228 229 230 231 232 233 234 235 236 237 238 239 240 241 242 243 244 245 246 247 248 249 250 251 252 253 254 255 256 257 258 259 260 261 262 263 264 265 266 267 268 269 270 271 272 273 274 275 276 277 278 279 280 281 282 283 284 285 286 287 288 289 290 291 292 293 294 295 296 297 298 299 300 301 302 303 304 305 306 307 308 309 310 311 312 313 314 315 316 317 318 319 320 321 322 323 324 325 326 327 328 329 330 331 332 333 334 335 336 337 338 339 340 341 342 343 344 345 346 347 348 349 350 351 352 353 354 355 356 357 358 359 360 361 362 363 364 365 366 367 368 369 370 371 372 373 374 375 376 377 378 379 380 381 382 383 384 385 386 387 388 389 390 391 392 393 394 395 396 397 398 399 400 
201 200 401 402 403 404 405 406 407 408 409 410 411 412 413 414 415 416 417 418 419 420 421 422 423 424 425 426 427 428 429 430 431 432 433 434 435 436 437 438 439 440 441 442 443 444 445 446 447 448 449 450 451 452 453 454 455 456 457 458 459 460 461 462 463 464 465 466 467 468 469 470 471 472 473 474 475 476 477 478 479 480 481 482 483 484 485 486 487 488 489 490 491 492 493 494 495 496 497 498 499 500 501 502 503 504 505 506 507 508 509 510 511 512 513 514 515 516 517 518 519 520 521 522 523 524 525 526 527 528 529 530 531 532 533 534 535 536 537 538 539 540 541 542 543 544 545 546 547 548 549 550 551 552 553 554 555 556 557 558 559 560 561 562 563 564 565 566 567 568 569 570 571 572 573 574 575 576 577 578 579 580 581 582 583 584 585 586 587 588 589 590 591 592 593 594 595 596 597 598 599 600 

POINT_DATA 601
SCALARS scalars double
LOOKUP_TABLE default
2 1.9975 1.995 1.9925 1.99 1.9875 1.985 1.9825 1.98 
1.9775 1.975 1.9725 1.97 1.9675 1.965 1.9625 1.96 1.9575 
1.955 1.9525 1.95 1.9475 1.945 1.9425 1.94 1.9375 1.935 
1.9325 1.93 1.9275 1.925 1.9225 1.92 1.9175 1.915 1.9125 
1.91 1.9075 1.905 1.9025 1.9 1.8975 1.895 1.8925 1.89 
1.8875 1.885 1.8825 1.88 1.8775 1.875 1.8725 1.87 1.8675 
1.865 1.8625 1.86 1.8575 1.855 1.8525 1.85 1.8475 1.845 
1.8425 1.84 1.8375 1.835 1.8325 1.83 1.8275 1.825 1.8225 
1.82 1.8175 1.815 1.8125 1.81 1.8075 1.805 1.8025 1.8 
1.7975 1.795 1.7925 1.79 1.7875 1.785 1.7825 1.78 1.7775 
1.775 1.7725 1.77 1.7675 1.765 1.7625 1.76 1.7575 1.755 
1.7525 1.75 1.7475 1.745 1.7425 1.74 1.7375 1.735 1.7325 
1.73 1.7275 1.725 1.7225 1.72 1.7175 1.715 1.7125 1.71 
1.7075 1.705 1.7025 1.7 1.6975 1.695 1.6925 1.69 1.6875 
1.685 1.6825 1.68 1.6775 1.675 1.6725 1.67 1.6675 1.665 
1.6625 1.66 1.6575 1.655 1.6525 1.65 1.6475 1.645 1.6425 
1.64 1.6375 1.635 1.6325 1.63 1.6275 1.625 1.6225 1.62 
1.6175 1.615 1.6125 1.61 1.6075 1.605 1.6025 1.6 1.5975 
1.595 1.5925 1.59 1.5875 1.585 1.5825 1.58 1.5775 1.575 
1.5725 1.57 1.5675 1.565 1.5625 1.56 1.5575 1.555 1.5525 
1.55 1.5475 1.545 1.5425 1.54 1.5375 1.535 1.5325 1.53 
1.5275 1.525 1.5225 1.52 1.5175 1.515 1.5125 1.51 1.5075 
1.505 1.5025 1.5 1.4975 1.495 1.4925 1.49 1.4875 1.485 
1.4825 1.48 1.4775 1.475 1.4725 1.47 1.4675 1.465 1.4625 
1.46 1.4575 1.455 1.4525 1.45 1.4475 1.445 1.4425 1.44 
1.4375 1.435 1.4325 1.43 1.4275 1.425 1.4225 1.42 1.4175 
1.415 1.4125 1.41 1.4075 1.405 1.4025 1.4 1.3975 1.395 
1.3925 1.39 1.3875 1.385 1.3825 1.38 1.3775 1.375 1.3725 
1.37 1.3675 1.365 1.3625 1.36 1.3575 1.355 1.3525 1.35 
1.3475 1.345 1.3425 1.34 1.3375 1.335 1.3325 1.33 1.3275 
1.325 1.3225 1.32 1.3175 1.315 1.3125 1.31 1.3075 1.305 
1.3025 1.3 1.2975 1.295 1.2925 1.29 1.2875 1.285 1.2825 
1.28 1.2775 1.275 1.2725 1.27 1.2675 1.265 1.2625 1.26 
1.2575 1.255 1.2525 1.25 1.2475 1.245 1.2425 1.24 1.2375 
1.235 1.2325 1.23 1.2275 1.225 1.2225 1.22 1.2175 1.215 
1.2125 1.21 1.2075 1.205 1.2025 1.2 1.1975 1.195 1.1925 
1.19 1.1875 1.185 1.1825 1.18 1.1775 1.175 1.1725 1.17 
1.1675 1.165 1.1625 1.16 1.1575 1.155 1.1525 1.15 1.1475 
1.145 1.1425 1.14 1.1375 1.135 1.1325 1.13 1.1275 1.125 
1.1225 1.12 1.1175 1.115 1.1125 1.11 1.1075 1.105 1.1025 
1.1 1.0975 1.095 1.0925 1.09 1.0875 1.085 1.0825 1.08 
1.0775 1.075 1.0725 1.07 1.0675 1.065 1.0625 1.06 1.0575 
1.055 1.0525 1.05 1.0475 1.045 1.0425 1.04 1.0375 1.035 
1.0325 1.03 1.0275 1.025 1.0225 1.02 1.0175 1.015 1.0125 
1.01 1.0075 1.005 1.0025 1 1.4975 1.495 1.4925 1.49 
1.4875 1.485 1.4825 1.48 1.4775 1.475 1.4725 1.47 1.4675 
1.465 1.4625 1.46 1.4575 1.455 1.4525 1.45 1.4475 1.445 
1.4425 1.44 1.4375 1.435 1.4325 1.43 1.4275 1.425 1.4225 
1.42 1.4175 1.415 1.4125 1.41 1.4075 1.405 1.4025 1.4 
1.3975 1.395 1.3925 1.39 1.3875 1.385 1.3825 1.38 1.3775 
1.375 1.3725 1.37 1.3675 1.365 1.3625 1.36 1.3575 1.355 
1.3525 1.35 1.3475 1.345 1.3425 1.34 1.3375 1.335 1.3325 
1.33 1.3275 1.325 1.3225 1.32 1.3175 1.315 1.3125 1.31 
1.3075 1.305 1.3025 1.3 1.2975 1.295 1.2925 1.29 1.2875 
1.285 1.2825 1.28 1.2775 1.275 1.2725 1.27 1.2675 1.265 
1.2625 1.26 1.2575 1.255 1.2525 1.25 1.2475 1.245 1.2425 
1.24 1.2375 1.235 1.2325 1.23 1.2275 1.225 1.2225 1.22 
1.2175 1.215 1.2125 1.21 1.2075 1.205 1.2025 1.2 1.1975 
1.195 1.1925 1.19 1.1875 1.185 1.1825 1.18 1.1775 1.175 
1.1725 1.17 1.1675 1.165 1.1625 1.16 1.1575 1.155 1.1525 
1.15 1.1475 1.145 1.1425 1.14 1.1375 1.135 1.1325 1.13 
1.1275 1.125 1.1225 1.12 1.1175 1.115 1.1125 1.11 1.1075 
1.105 1.1025 1.1 1.0975 1.095 1.0925 1.09 1.0875 1.085 
1.0825 1.08 1.0775 1.075 1.0725 1.07 1.0675 1.065 1.0625 
1.06 1.0575 1.055 1.0525 1.05 1.0475 1.045 1.0425 1.04 
1.0375 1.035 1.0325 1.03 1.0275 1.025 1.0225 1.02 1.0175 
1.015 1.0125 1.01 1.0075 1.005 1.0025 1 
