# vtk DataFile Version 3.0
vtk output
ASCII
DATASET POLYDATA
POINTS 601 float
50 0 0 49.9999 0.0999999 0 49.9996 0.199999 0 
49.9991 0.299998 0 49.9984 0.399996 0 49.9975 0.499992 0 
49.9964 0.599986 0 49.9951 0.699977 0 49.9936 0.799966 0 
49.9919 0.899951 0 49.99 0.999933 0 49.9879 1.09991 0 
49.9856 1.19988 0 49.9831 1.29985 0 49.9804 1.39982 0 
49.9775 1.49978 0 49.9744 1.59973 0 49.9711 1.69967 0 
49.9676 1.79961 0 49.9639 1.89954 0 49.96 1.99947 0 
49.9559 2.09938 0 49.9516 2.19929 0 49.9471 2.29919 0 
49.9424 2.39908 0 49.9375 2.49896 0 49.9324 2.59883 0 
49.9271 2.69869 0 49.9216 2.79854 0 49.9159 2.89837 0 
49.91 2.9982 0 49.9039 3.09801 0 49.8976 3.19782 0 
49.8911 3.2976 0 49.8844 3.39738 0 49.8775 3.49714 0 
49.8705 3.59689 0 49.8632 3.69662 0 49.8557 3.79634 0 
49.848 3.89605 0 49.8401 3.99573 0 49.832 4.09541 0 
49.8237 4.19506 0 49.8152 4.2947 0 49.8065 4.39432 0 
49.7976 4.49393 0 49.7885 4.59351 0 49.7793 4.69308 0 
49.7698 4.79263 0 49.7601 4.89216 0 49.7502 4.99167 0 
49.7401 5.09116 0 49.7298 5.19063 0 49.7194 5.29008 0 
49.7087 5.38951 0 49.6978 5.48891 0 49.6867 5.5883 0 
49.6755 5.68766 0 49.664 5.787 0 49.6523 5.88632 0 
49.6404 5.98561 0 49.6284 6.08488 0 49.6161 6.18412 0 
49.6036 6.28334 0 49.591 6.38254 0 49.5781 6.48171 0 
49.565 6.58085 0 49.5518 6.67997 0 49.5383 6.77906 0 
49.5247 6.87812 0 49.5108 6.97716 0 49.4967 7.07616 0 
49.4825 7.17514 0 49.468 7.27409 0 49.4534 7.37301 0 
49.4386 7.47191 0 49.4235 7.57077 0 49.4083 7.6696 0 
49.3928 7.7684 0 49.3772 7.86717 0 49.3614 7.96591 0 
49.3453 8.06462 0 49.3291 8.16329 0 49.3127 8.26193 0 
49.2961 8.36054 0 49.2792 8.45912 0 49.2622 8.55766 0 
49.245 8.65617 0 49.2276 8.75464 0 49.21 8.85308 0 
49.1922 8.95148 0 49.1742 9.04984 0 49.156 9.14818 0 
49.1376 9.24647 0 49.119 9.34473 0 49.1002 9.44294 0 
49.0812 9.54113 0 49.062 9.63927 0 49.0427 9.73737 0 
49.0231 9.83544 0 49.0033 9.93347 0 48.9834 10.0315 0 
48.9632 10.1294 0 48.9428 10.2273 0 48.9223 10.3252 0 
48.9015 10.423 0 48.8806 10.5208 0 48.8595 10.6185 0 
48.8381 10.7162 0 48.8166 10.8139 0 48.7949 10.9115 0 
48.773 11.009 0 48.7508 11.1066 0 48.7285 11.2041 0 
48.706 11.3015 0 48.6833 11.3989 0 48.6604 11.4962 0 
48.6373 11.5935 0 48.6141 11.6908 0 48.5906 11.788 0 
48.5669 11.8851 0 48.543 11.9822 0 48.519 12.0793 0 
48.4947 12.1763 0 48.4703 12.2733 0 48.4456 12.3702 0 
48.4208 12.4671 0 48.3958 12.5639 0 48.3705 12.6606 0 
48.3451 12.7574 0 48.3195 12.854 0 48.2937 12.9506 0 
48.2677 13.0472 0 48.2415 13.1437 0 48.2151 13.2402 0 
48.1885 13.3366 0 48.1618 13.4329 0 48.1348 13.5292 0 
48.1077 13.6255 0 48.0803 13.7216 0 48.0528 13.8178 0 
48.025 13.9139 0 47.9971 14.0099 0 47.969 14.1058 0 
47.9407 14.2018 0 47.9122 14.2976 0 47.8835 14.3934 0 
47.8546 14.4891 0 47.8255 14.5848 0 47.7963 14.6804 0 
47.7668 14.776 0 47.7372 14.8715 0 47.7073 14.967 0 
47.6773 15.0623 0 47.6471 15.1577 0 47.6167 15.2529 0 
47.5861 15.3481 0 47.5553 15.4433 0 47.5243 15.5384 0 
47.4931 15.6334 0 47.4618 15.7283 0 47.4302 15.8232 0 
47.3985 15.918 0 47.3665 16.0128 0 47.3344 16.1075 0 
47.3021 16.2022 0 47.2696 16.2967 0 47.2369 16.3912 0 
47.2041 16.4857 0 47.171 16.58 0 47.1377 16.6744 0 
47.1043 16.7686 0 47.0707 16.8628 0 47.0368 16.9569 0 
47.0028 17.0509 0 46.9686 17.1449 0 46.9343 17.2388 0 
46.8997 17.3326 0 46.8649 17.4264 0 46.83 17.5201 0 
46.7948 17.6137 0 46.7595 17.7073 0 46.724 17.8007 0 
46.6883 17.8942 0 46.6524 17.9875 0 46.6164 18.0808 0 
46.5801 18.174 0 46.5437 18.2671 0 46.507 18.3601 0 
46.4702 18.4531 0 46.4332 18.546 0 46.396 18.6389 0 
46.3587 18.7316 0 46.3211 18.8243 0 46.2834 18.9169 0 
46.2455 19.0094 0 46.2073 19.1019 0 46.169 19.1943 0 
46.1306 19.2866 0 46.0919 19.3788 0 46.0531 19.4709 0 
46.0254 19.536 -0.0707106 45.9976 19.601 -0.141421 45.9696 19.666 -0.212131 
45.9414 19.7308 -0.28284 45.9131 19.7956 -0.353547 45.8845 19.8603 -0.424254 
45.8558 19.9249 -0.494959 45.8269 19.9894 -0.565661 45.7978 20.0539 -0.636362 
45.7685 20.1182 -0.70706 45.7391 20.1825 -0.777755 45.7094 20.2467 -0.848447 
45.6796 20.3108 -0.919135 45.6496 20.3749 -0.98982 45.6194 20.4388 -1.0605 
45.5891 20.5027 -1.13118 45.5585 20.5664 -1.20185 45.5278 20.6301 -1.27252 
45.4969 20.6937 -1.34318 45.4658 20.7572 -1.41384 45.4345 20.8207 -1.48449 
45.4031 20.884 -1.55513 45.3715 20.9472 -1.62577 45.3397 21.0104 -1.6964 
45.3077 21.0735 -1.76703 45.2755 21.1364 -1.83765 45.2432 21.1993 -1.90826 
45.2107 21.2621 -1.97886 45.178 21.3248 -2.04946 45.1451 21.3874 -2.12005 
45.1121 21.4499 -2.19063 45.0789 21.5124 -2.2612 45.0455 21.5747 -2.33176 
45.0119 21.6369 -2.40231 44.9782 21.6991 -2.47285 44.9442 21.7611 -2.54339 
44.9102 21.8231 -2.61391 44.8759 21.8849 -2.68442 44.8414 21.9467 -2.75492 
44.8068 22.0083 -2.82541 44.772 22.0699 -2.89589 44.7371 22.1313 -2.96636 
44.7019 22.1927 -3.03682 44.6666 22.254 -3.10726 44.6311 22.3151 -3.17769 
44.5955 22.3762 -3.24811 44.5596 22.4371 -3.31852 44.5236 22.498 -3.38891 
44.4875 22.5588 -3.45929 44.4511 22.6194 -3.52965 44.4146 22.68 -3.6 
44.3779 22.7404 -3.67034 44.3411 22.8008 -3.74066 44.3041 22.861 -3.81097 
44.2669 22.9212 -3.88126 44.2295 22.9812 -3.95154 44.192 23.0411 -4.0218 
44.1543 23.1009 -4.09205 44.1164 23.1607 -4.16228 44.0784 23.2203 -4.23249 
44.0402 23.2798 -4.30268 44.0018 23.3392 -4.37286 43.9633 23.3984 -4.44302 
43.9246 23.4576 -4.51317 43.8857 23.5167 -4.58329 43.8467 23.5757 -4.6534 
43.8075 23.6345 -4.72349 43.7682 23.6932 -4.79356 43.7286 23.7519 -4.86361 
43.6889 23.8104 -4.93364 43.6491 23.8688 -5.00365 43.6091 23.9271 -5.07365 
43.5689 23.9853 -5.14362 43.5286 24.0434 -5.21357 43.4881 24.1013 -5.2835 
43.4474 24.1592 -5.35341 43.4066 24.2169 -5.4233 43.3656 24.2745 -5.49317 
43.3244 24.332 -5.56302 43.2831 24.3894 -5.63284 43.2417 24.4466 -5.70264 
43.2 24.5038 -5.77242 43.1582 24.5608 -5.84218 43.1163 24.6178 -5.91191 
43.0742 24.6745 -5.98162 43.0319 24.7312 -6.05131 42.9895 24.7878 -6.12097 
42.9469 24.8442 -6.19061 42.9042 24.9006 -6.26023 42.8613 24.9568 -6.32982 
42.8183 25.0129 -6.39938 42.7751 25.0688 -6.46892 42.7317 25.1247 -6.53844 
42.6882 25.1804 -6.60792 42.6445 25.236 -6.67739 42.6007 25.2915 -6.74682 
42.5567 25.3468 -6.81623 42.5126 25.4021 -6.88562 42.4683 25.4572 -6.95497 
42.4239 25.5122 -7.0243 42.3793 25.567 -7.0936 42.3346 25.6218 -7.16288 
42.2897 25.6764 -7.23212 42.2447 25.7309 -7.30134 42.1995 25.7853 -7.37053 
42.1541 25.8395 -7.43969 42.1086 25.8936 -7.50882 42.063 25.9476 -7.57792 
42.0172 26.0015 -7.64699 41.9713 26.0552 -7.71603 41.9252 26.1088 -7.78504 
41.879 26.1623 -7.85402 41.8326 26.2156 -7.92298 41.7861 26.2689 -7.9919 
41.7394 26.3219 -8.06078 41.6926 26.3749 -8.12964 41.6456 26.4277 -8.19847 
41.5985 26.4804 -8.26726 41.5513 26.533 -8.33602 41.5039 26.5855 -8.40475 
41.4564 26.6378 -8.47345 41.4087 26.6899 -8.54211 41.3609 26.742 -8.61074 
41.3129 26.7939 -8.67934 41.2648 26.8457 -8.7479 41.2165 26.8973 -8.81643 
41.1682 26.9489 -8.88492 41.1196 27.0002 -8.95339 41.071 27.0515 -9.02181 
41.0222 27.1026 -9.0902 40.9732 27.1536 -9.15856 40.9241 27.2044 -9.22688 
40.8749 27.2551 -9.29516 40.8256 27.3057 -9.36341 40.7761 27.3561 -9.43162 
40.7264 27.4064 -9.4998 40.6767 27.4566 -9.56794 40.6267 27.5066 -9.63604 
40.5767 27.5565 -9.70411 40.5265 27.6063 -9.77214 40.4762 27.6559 -9.84013 
40.4258 27.7054 -9.90808 40.3752 27.7547 -9.976 40.3245 27.8039 -10.0439 
40.2736 27.8529 -10.1117 40.2227 27.9019 -10.1795 40.1716 27.9506 -10.2473 
40.1203 27.9993 -10.315 40.069 28.0478 -10.3827 40.0175 28.0961 -10.4503 
39.9658 28.1444 -10.5179 39.9141 28.1924 -10.5855 39.8622 28.2404 -10.653 
39.8102 28.2882 -10.7205 39.758 28.3358 -10.7879 39.7058 28.3833 -10.8553 
39.6534 28.4307 -10.9227 39.6009 28.4779 -10.99 39.5482 28.525 -11.0573 
39.4954 28.5719 -11.1245 39.4425 28.6187 -11.1917 39.3895 28.6654 -11.2588 
39.3364 28.7119 -11.3259 39.2831 28.7582 -11.393 39.2297 28.8045 -11.46 
39.1762 28.8505 -11.527 39.1226 28.8965 -11.5939 39.0688 28.9422 -11.6608 
39.0149 28.9879 -11.7276 38.9609 29.0334 -11.7944 38.9068 29.0787 -11.8612 
38.8526 29.1239 -11.9279 38.7982 29.1689 -11.9946 38.7438 29.2138 -12.0612 
38.6892 29.2586 -12.1278 38.6345 29.3032 -12.1943 38.5796 29.3476 -12.2608 
38.5247 29.392 -12.3272 38.4697 29.4361 -12.3936 38.4145 29.4801 -12.4599 
38.3592 29.524 -12.5262 38.3038 29.5677 -12.5925 38.2483 29.6113 -12.6587 
38.1926 29.6547 -12.7248 38.1369 29.6979 -12.791 38.0811 29.7411 -12.857 
38.0251 29.784 -12.923 37.969 29.8268 -12.989 37.9128 29.8695 -13.0549 
37.8565 29.912 -13.1208 37.8001 29.9544 -13.1866 37.7436 29.9966 -13.2523 
37.687 30.0386 -13.3181 37.6303 30.0805 -13.3837 37.5734 30.1223 -13.4494 
37.5165 30.1639 -13.5149 37.4594 30.2054 -13.5804 37.4023 30.2466 -13.6459 
37.345 30.2878 -13.7113 37.2876 30.3288 -13.7767 46.0254 19.536 0.0707106 
45.9976 19.601 0.141421 45.9696 19.666 0.212131 45.9414 19.7308 0.28284 
45.9131 19.7956 0.353547 45.8845 19.8603 0.424254 45.8558 19.9249 0.494959 
45.8269 19.9894 0.565661 45.7978 20.0539 0.636362 45.7685 20.1182 0.70706 
45.7391 20.1825 0.777755 45.7094 20.2467 0.848447 45.6796 20.3108 0.919135 
45.6496 20.3749 0.98982 45.6194 20.4388 1.0605 45.5891 20.5027 1.13118 
45.5585 20.5664 1.20185 45.5278 20.6301 1.27252 45.4969 20.6937 1.34318 
45.4658 20.7572 1.41384 45.4345 20.8207 1.48449 45.4031 20.884 1.55513 
45.3715 20.9472 1.62577 45.3397 21.0104 1.6964 45.3077 21.0735 1.76703 
45.2755 21.1364 1.83765 45.2432 21.1993 1.90826 45.2107 21.2621 1.97886 
45.178 21.3248 2.04946 45.1451 21.3874 2.12005 45.1121 21.4499 2.19063 
45.0789 21.5124 2.2612 45.0455 21.5747 2.33176 45.0119 21.6369 2.40231 
44.9782 21.6991 2.47285 44.9442 21.7611 2.54339 44.9102 21.8231 2.61391 
44.8759 21.8849 2.68442 44.8414 21.9467 2.75492 44.8068 22.0083 2.82541 
44.772 22.0699 2.89589 44.7371 22.1313 2.96636 44.7019 22.1927 3.03682 
44.6666 22.254 3.10726 44.6311 22.3151 3.17769 44.5955 22.3762 3.24811 
44.5596 22.4371 3.31852 44.5236 22.498 3.38891 44.4875 22.5588 3.45929 
44.4511 22.6194 3.52965 44.4146 22.68 3.6 44.3779 22.7404 3.67034 
44.3411 22.8008 3.74066 44.3041 22.861 3.81097 44.2669 22.9212 3.88126 
44.2295 22.9812 3.95154 44.192 23.0411 4.0218 44.1543 23.1009 4.09205 
44.1164 23.1607 4.16228 44.0784 23.2203 4.23249 44.0402 23.2798 4.30268 
44.0018 23.3392 4.37286 43.9633 23.3984 4.44302 43.9246 23.4576 4.51317 
43.8857 23.5167 4.58329 43.8467 23.5757 4.6534 43.8075 23.6345 4.72349 
43.7682 23.6932 4.79356 43.7286 23.7519 4.86361 43.6889 23.8104 4.93364 
43.6491 23.8688 5.00365 43.6091 23.9271 5.07365 43.5689 23.9853 5.14362 
43.5286 24.0434 5.21357 43.4881 24.1013 5.2835 43.4474 24.1592 5.35341 
43.4066 24.2169 5.4233 43.3656 24.2745 5.49317 43.3244 24.332 5.56302 
43.2831 24.3894 5.63284 43.2417 24.4466 5.70264 43.2 24.5038 5.77242 
43.1582 24.5608 5.84218 43.1163 24.6178 5.91191 43.0742 24.6745 5.98162 
43.0319 24.7312 6.05131 42.9895 24.7878 6.12097 42.9469 24.8442 6.19061 
42.9042 24.9006 6.26023 42.8613 24.9568 6.32982 42.8183 25.0129 6.39938 
42.7751 25.0688 6.46892 42.7317 25.1247 6.53844 42.6882 25.1804 6.60792 
42.6445 25.236 6.67739 42.6007 25.2915 6.74682 42.5567 25.3468 6.81623 
42.5126 25.4021 6.88562 42.4683 25.4572 6.95497 42.4239 25.5122 7.0243 
42.3793 25.567 7.0936 42.3346 25.6218 7.16288 42.2897 25.6764 7.23212 
42.2447 25.7309 7.30134 42.1995 25.7853 7.37053 42.1541 25.8395 7.43969 
42.1086 25.8936 7.50882 42.063 25.9476 7.57792 42.0172 26.0015 7.64699 
41.9713 26.0552 7.71603 41.9252 26.1088 7.78504 41.879 26.1623 7.85402 
41.8326 26.2156 7.92298 41.7861 26.2689 7.9919 41.7394 26.3219 8.06078 
41.6926 26.3749 8.12964 41.6456 26.4277 8.19847 41.5985 26.4804 8.26726 
41.5513 26.533 8.33602 41.5039 26.5855 8.40475 41.4564 26.6378 8.47345 
41.4087 26.6899 8.54211 41.3609 26.742 8.61074 41.3129 26.7939 8.67934 
41.2648 26.8457 8.7479 41.2165 26.8973 8.81643 41.1682 26.9489 8.88492 
41.1196 27.0002 8.95339 41.071 27.0515 9.02181 41.0222 27.1026 9.0902 
40.9732 27.1536 9.15856 40.9241 27.2044 9.22688 40.8749 27.2551 9.29516 
40.8256 27.3057 9.36341 40.7761 27.3561 9.43162 40.7264 27.4064 9.4998 
40.6767 27.4566 9.56794 40.6267 27.5066 9.63604 40.5767 27.5565 9.70411 
40.5265 27.6063 9.77214 40.4762 27.6559 9.84013 40.4258 27.7054 9.90808 
40.3752 27.7547 9.976 40.3245 27.8039 10.0439 40.2736 27.8529 10.1117 
40.2227 27.9019 10.1795 40.1716 27.9506 10.2473 40.1203 27.9993 10.315 
40.069 28.0478 10.3827 40.0175 28.0961 10.4503 39.9658 28.1444 10.5179 
39.9141 28.1924 10.5855 39.8622 28.2404 10.653 39.8102 28.2882 10.7205 
39.758 28.3358 10.7879 39.7058 28.3833 10.8553 39.6534 28.4307 10.9227 
39.6009 28.4779 10.99 39.5482 28.525 11.0573 39.4954 28.5719 11.1245 
39.4425 28.6187 11.1917 39.3895 28.6654 11.2588 39.3364 28.7119 11.3259 
39.2831 28.7582 11.393 39.2297 28.8045 11.46 39.1762 28.8505 11.527 
39.1226 28.8965 11.5939 39.0688 28.9422 11.6608 39.0149 28.9879 11.7276 
38.9609 29.0334 11.7944 38.9068 29.0787 11.8612 38.8526 29.1239 11.9279 
38.7982 29.1689 11.9946 38.7438 29.2138 12.0612 38.6892 29.2586 12.1278 
38.6345 29.3032 12.1943 38.5796 29.3476 12.2608 38.5247 29.392 12.3272 
38.4697 29.4361 12.3936 38.4145 29.4801 12.4599 38.3592 29.524 12.5262 
38.3038 29.5677 12.5925 38.2483 29.6113 12.6587 38.1926 29.6547 12.7248 
38.1369 29.6979 12.791 38.0811 29.7411 12.857 38.0251 29.784 12.923 
37.969 29.8268 12.989 37.9128 29.8695 13.0549 37.8565 29.912 13.1208 
37.8001 29.9544 13.1866 37.7436 29.9966 13.2523 37.687 30.0386 13.3181 
37.6303 30.0805 13.3837 37.5734 30.1223 13.4494 37.5165 30.1639 13.5149 
37.4594 30.2054 13.5804 37.4023 30.2466 13.6459 37.345 30.2878 13.7113 
37.2876 30.3288 13.7767 
LINES 3 606
201 0 1 2 3 4 5 6 7 8 9 10 11 12 13 14 15 16 17 18 19 20 21 22 23 24 25 26 27 28 29 30 31 32 33 34 35 36 37 38 39 40 41 42 43 44 45 46 47 48 49 50 51 52 53 54 55 56 57 58 59 60 61 62 63 64 65 66 67 68 69 70 71 72 73 74 75 76 77 78 79 80 81 82 83 84 85 86 87 88 89 90 91 92 93 94 95 96 97 98 99 100 101 102 103 104 105 106 107 108 109 110 111 112 113 114 115 116 117 118 119 120 121 122 123 124 125 126 127 128 129 130 131 132 133 134 135 136 137 138 139 140 141 142 143 144 145 146 147 148 149 150 151 152 153 154 155 156 157 158 159 160 161 162 163 164 165 166 167 168 169 170 171 172 173 174 175 176 177 178 179 180 181 182 183 184 185 186 187 188 189 190 191 192 193 194 195 196 197 198 199 200 
201 200 201 202 203 204 205 206 207 208 209 210 211 212 213 214 215 216 217 218 219 220 221 222 223 224 225 226 227 228 229 230 231 232 233 234 235 236 237 238 239 240 241 242 243 244 245 246 247 248 249 250 251 252 253 254 255 256 257 258 259 260 261 262 263 264 265 266 267 268 269 270 271 272 273 274 275 276 277 278 279 280 281 282 283 284 285 286 287 288 289 290 291 292 293 294 295 296 297 298 299 300 301 302 303 304 305 306 307 308 309 310 311 312 313 314 315 316 317 318 319 320 321 322 323 324 325 326 327 328 329 330 331 332 333 334 335 336 337 338 339 340 341 342 343 344 345 346 347 348 349 350 351 352 353 354 355 356 357 358 359 360 361 362 363 364 365 366 367 368 369 370 371 372 373 374 375 376 377 378 379 380 381 382 383 384 385 386 387 388 389 390 391 392 393 394 395 396 397 398 399 400 
201 200 401 402 403 404 405 406 407 408 409 410 411 412 413 414 415 416 417 418 419 420 421 422 423 424 425 426 427 428 429 430 431 432 433 434 435 436 437 438 439 440 441 442 443 444 445 446 447 448 449 450 451 452 453 454 455 456 457 458 459 460 461 462 463 464 465 466 467 468 469 470 471 472 473 474 475 476 477 478 479 480 481 482 483 484 485 486 487 488 489 490 491 492 493 494 495 496 497 498 499 500 501 502 503 504 505 506 507 508 509 510 511 512 513 514 515 516 517 518 519 520 521 522 523 524 525 526 527 528 529 530 531 532 533 534 535 536 537 538 539 540 541 542 543 544 545 546 547 548 549 550 551 552 553 554 555 556 557 558 559 560 561 562 563 564 565 566 567 568 569 570 571 572 573 574 575 576 577 578 579 580 581 582 583 584 585 586 587 588 589 590 591 592 593 594 595 596 597 598 599 600 

POINT_DATA 601
SCALARS scalars double
LOOKUP_TABLE default
2 1.9975 1.995 1.9925 1.99 1.9875 1.985 1.9825 1.98 
1.9775 1.975 1.9725 1.97 1.9675 1.965 1.9625 1.96 1.9575 
1.955 1.9525 1.95 1.9475 1.945 1.9425 1.94 1.9375 1.935 
1.9325 1.93 1.9275 1.925 1.9225 1.92 1.9175 1.915 1.9125 
1.91 1.9075 1.905 1.9025 1.9 1.8975 1.895 1.8925 1.89 
1.8875 1.885 1.8825 1.88 1.8775 1.875 1.8725 1.87 1.8675 
1.865 1.8625 1.86 1.8575 1.855 1.8525 1.85 1.8475 1.845 
1.8425 1.84 1.8375 1.835 1.8325 1.83 1.8275 1.825 1.8225 
1.82 1.8175 1.815 1.8125 1.81 1.8075 1.805 1.8025 1.8 
1.7975 1.795 1.7925 1.79 1.7875 1.785 1.7825 1.78 1.7775 
1.775 1.7725 1.77 1.7675 1.765 1.7625 1.76 1.7575 1.755 
1.7525 1.75 1.7475 1.745 1.7425 1.74 1.7375 1.735 1.7325 
1.73 1.7275 1.725 1.7225 1.72 1.7175 1.715 1.7125 1.71 
1.7075 1.705 1.7025 1.7 1.6975 1.695 1.6925 1.69 1.6875 
1.685 1.6825 1.68 1.6775 1.675 1.6725 1.67 1.6675 1.665 
1.6625 1.66 1.6575 1.655 1.6525 1.65 1.6475 1.645 1.6425 
1.64 1.6375 1.635 1.6325 1.63 1.6275 1.625 1.6225 1.62 
1.6175 1.615 1.6125 1.61 1.6075 1.605 1.6025 1.6 1.5975 
1.595 1.5925 1.59 1.5875 1.585 1.5825 1.58 1.5775 1.575 
1.5725 1.57 1.5675 1.565 1.5625 1.56 1.5575 1.555 1.5525 
1.55 1.5475 1.545 1.5425 1.54 1.5375 1.535 1.5325 1.53 
1.5275 1.525 1.5225 1.52 1.5175 1.515 1.5125 1.51 1.5075 
1.505 1.5025 1.5 1.4975 1.495 1.4925 1.49 1.4875 1.485 
1.4825 1.48 1.4775 1.475 1.4725 1.47 1.4675 1.465 1.4625 
1.46 1.4575 1.455 1.4525 1.45 1.4475 1.445 1.4425 1.44 
1.4375 1.435 1.4325 1.43 1.4275 1.425 1.4225 1.42 1.4175 
1.415 1.4125 1.41 1.4075 1.405 1.4025 1.4 1.3975 1.395 
1.3925 1.39 1.3875 1.385 1.3825 1.38 1.3775 1.375 1.3725 
1.37 1.3675 1.365 1.3625 1.36 1.3575 1.355 1.3525 1.35 
1.3475 1.345 1.3425 1.34 1.3375 1.335 1.3325 1.33 1.3275 
1.325 1.3225 1.32 1.3175 1.315 1.3125 1.31 1.3075 1.305 
1.3025 1.3 1.2975 1.295 1.2925 1.29 1.2875 1.285 1.2825 
1.28 1.2775 1.275 1.2725 1.27 1.2675 1.265 1.2625 1.26 
1.2575 1.255 1.2525 1.25 1.2475 1.245 1.2425 1.24 1.2375 
1.235 1.2325 1.23 1.2275 1.225 1.2225 1.22 1.2175 1.215 
1.2125 1.21 1.2075 1.205 1.2025 1.2 1.1975 1.195 1.1925 
1.19 1.1875 1.185 1.1825 1.18 1.1775 1.175 1.1725 1.17 
1.1675 1.165 1.1625 1.16 1.1575 1.155 1.1525 1.15 1.1475 
1.145 1.1425 1.14 1.1375 1.135 1.1325 1.13 1.1275 1.125 
1.1225 1.12 1.1175 1.115 1.1125 1.11 1.1075 1.105 1.1025 
1.1 1.0975 1.095 1.0925 1.09 1.0875 1.085 1.0825 1.08 
1.0775 1.075 1.0725 1.07 1.0675 1.065 1.0625 1.06 1.0575 
1.055 1.0525 1.05 1.0475 1.045 1.0425 1.04 1.0375 1.035 
1.0325 1.03 1.0275 1.025 1.0225 1.02 1.0175 1.015 1.0125 
1.01 1.0075 1.005 1.0025 1 1.4975 1.495 1.4925 1.49 
1.4875 1.485 1.4825 1.48 1.4775 1.475 1.4725 1.47 1.4675 
1.465 1.4625 1.46 1.4575 1.455 1.4525 1.45 1.4475 1.445 
1.4425 1.44 1.4375 1.435 1.4325 1.43 1.4275 1.425 1.4225 
1.42 1.4175 1.415 1.4125 1.41 1.4075 1.405 1.4025 1.4 
1.3975 1.395 1.3925 1.39 1.3875 1.385 1.3825 1.38 1.3775 
1.375 1.3725 1.37 1.3675 1.365 1.3625 1.36 1.3575 1.355 
1.3525 1.35 1.3475 1.345 1.3425 1.34 1.3375 1.335 1.3325 
1.33 1.3275 1.325 1.3225 1.32 1.3175 1.315 1.3125 1.31 
1.3075 1.305 1.3025 1.3 1.2975 1.295 1.2925 1.29 1.2875 
1.285 1.2825 1.28 1.2775 1.275 1.2725 1.27 1.2675 1.265 
1.2625 1.26 1.2575 1.255 1.2525 1.25 1.2475 1.245 1.2425 
1.24 1.2375 1.235 1.2325 1.23 1.2275 1.225 1.2225 1.22 
1.2175 1.215 1.2125 1.21 1.2075 1.205 1.2025 1.2 1.1975 
1.195 1.1925 1.19 1.1875 1.185 1.1825 1.18 1.1775 1.175 
1.1725 1.17 1.1675 1.165 1.1625 1.16 1.1575 1.155 1.1525 
1.15 1.1475 1.145 1.1425 1.14 1.1375 1.135 1.1325 1.13 
1.1275 1.125 1.1225 1.12 1.1175 1.115 1.1125 1.11 1.1075 
1.105 1.1025 1.1 1.0975 1.095 1.0925 1.09 1.0875 1.085 
1.0825 1.08 1.0775 1.075 1.0725 1.07 1.0675 1.065 1.0625 
1.06 1.0575 1.055 1.0525 1.05 1.0475 1.045 1.0425 1.04 
1.0375 1.035 1.0325 1.03 1.0275 1.025 1.0225 1.02 1.0175 
1.015 1.0125 1.01 1.0075 1.005 1.0025 1 
