# vtk DataFile Version 3.0
vtk output
ASCII
DATASET POLYDATA
POINTS 265 float
0 0 0 0.1 0 0 0.2 0 0 
0.3 0 0 0.4 0 0 0.5 0 0 
0.6 0 0 0.7 0 0 0.8 0 0 
0.9 0 0 1 0 0 1.1 0 0 
1.2 0 0 1.3 0 0 1.4 0 0 
1.5 0 0 1.6 0 0 1.7 0 0 
1.8 0 0 1.9 0 0 2 0 0 
2.1 0 0 2.2 0 0 2.3 0 0 
2.4 0 0 2.5 0 0 2.6 0 0 
2.7 0 0 2.8 0 0 2.9 0 0 
3 0 0 3.1 0 0 3.2 0 0 
3.3 0 0 3.4 0 0 3.5 0 0 
3.6 0 0 3.7 0 0 3.8 0 0 
3.9 0 0 4 0 0 4.1 0 0 
4.2 0 0 4.3 0 0 4.4 0 0 
4.5 0 0 4.6 0 0 4.7 0 0 
4.8 0 0 4.9 0 0 5 0 0 
5.1 0 0 5.2 0 0 5.3 0 0 
5.4 0 0 5.5 0 0 5.6 0 0 
5.7 0 0 5.8 0 0 5.9 0 0 
6 0 0 6.1 0 0 6.2 0 0 
6.3 0 0 6.4 0 0 6.5 0 0 
6.6 0 0 6.7 0 0 6.8 0 0 
6.9 0 0 7 0 0 7.1 0 0 
7.2 0 0 7.3 0 0 7.4 0 0 
7.5 0 0 7.6 0 0 7.7 0 0 
7.8 0 0 7.9 0 0 8 0 0 
8.1 0 0 8.2 0 0 8.3 0 0 
8.4 0 0 8.5 0 0 8.6 0 0 
8.7 0 0 8.8 0 0 8.8866 0.05 0 
8.9732 0.1 0 9.05981 0.15 0 9.14641 0.2 0 
9.23301 0.25 0 9.31962 0.3 0 9.40622 0.35 0 
9.49282 0.4 0 9.57942 0.45 0 9.66603 0.5 0 
9.75263 0.55 0 9.83923 0.6 0 9.92583 0.65 0 
10.0124 0.7 0 10.099 0.75 0 10.1856 0.8 0 
10.2722 0.85 0 10.3588 0.9 0 10.4454 0.95 0 
10.5321 1 0 10.6187 1.05 0 10.7053 1.1 0 
10.7919 1.15 0 10.8785 1.2 0 10.9651 1.25 0 
11.0517 1.3 0 11.1383 1.35 0 11.2249 1.4 0 
11.3115 1.45 0 11.3981 1.5 0 11.4847 1.55 0 
11.5713 1.6 0 11.6579 1.65 0 11.7445 1.7 0 
11.8311 1.75 0 11.9177 1.8 0 12.0043 1.85 0 
12.0909 1.9 0 12.1775 1.95 0 12.2641 2 0 
12.3507 2.05 0 12.4373 2.1 0 12.5239 2.15 0 
12.6105 2.2 0 12.6971 2.25 0 12.7837 2.3 0 
12.8703 2.35 0 12.9569 2.4 0 13.0435 2.45 0 
13.1301 2.5 0 13.2167 2.55 0 13.3033 2.6 0 
13.3899 2.65 0 13.4765 2.7 0 13.5631 2.75 0 
13.6497 2.8 0 13.7363 2.85 0 13.8229 2.9 0 
13.9095 2.95 0 13.9962 3 0 14.0828 3.05 0 
14.1694 3.1 0 14.256 3.15 0 14.3426 3.2 0 
14.4292 3.25 0 14.5158 3.3 0 14.6024 3.35 0 
14.689 3.4 0 14.7756 3.45 0 14.8622 3.5 0 
14.9488 3.55 0 15.0354 3.6 0 15.122 3.65 0 
15.2086 3.7 0 15.2952 3.75 0 15.3818 3.8 0 
15.4684 3.85 0 15.555 3.9 0 15.6416 3.95 0 
15.7282 4 0 15.8148 4.05 0 15.9014 4.1 0 
15.988 4.15 0 16.0746 4.2 0 16.1612 4.25 0 
16.2478 4.3 0 16.3344 4.35 0 16.421 4.4 0 
8.8866 -0.05 0 8.9732 -0.1 0 9.05981 -0.15 0 
9.14641 -0.2 0 9.23301 -0.25 0 9.31962 -0.3 0 
9.40622 -0.35 0 9.49282 -0.4 0 9.57942 -0.45 0 
9.66603 -0.5 0 9.75263 -0.55 0 9.83923 -0.6 0 
9.92583 -0.65 0 10.0124 -0.7 0 10.099 -0.75 0 
10.1856 -0.8 0 10.2722 -0.85 0 10.3588 -0.9 0 
10.4454 -0.95 0 10.5321 -1 0 10.6187 -1.05 0 
10.7053 -1.1 0 10.7919 -1.15 0 10.8785 -1.2 0 
10.9651 -1.25 0 11.0517 -1.3 0 11.1383 -1.35 0 
11.2249 -1.4 0 11.3115 -1.45 0 11.3981 -1.5 0 
11.4847 -1.55 0 11.5713 -1.6 0 11.6579 -1.65 0 
11.7445 -1.7 0 11.8311 -1.75 0 11.9177 -1.8 0 
12.0043 -1.85 0 12.0909 -1.9 0 12.1775 -1.95 0 
12.2641 -2 0 12.3507 -2.05 0 12.4373 -2.1 0 
12.5239 -2.15 0 12.6105 -2.2 0 12.6971 -2.25 0 
12.7837 -2.3 0 12.8703 -2.35 0 12.9569 -2.4 0 
13.0435 -2.45 0 13.1301 -2.5 0 13.2167 -2.55 0 
13.3033 -2.6 0 13.3899 -2.65 0 13.4765 -2.7 0 
13.5631 -2.75 0 13.6497 -2.8 0 13.7363 -2.85 0 
13.8229 -2.9 0 13.9095 -2.95 0 13.9962 -3 0 
14.0828 -3.05 0 14.1694 -3.1 0 14.256 -3.15 0 
14.3426 -3.2 0 14.4292 -3.25 0 14.5158 -3.3 0 
14.6024 -3.35 0 14.689 -3.4 0 14.7756 -3.45 0 
14.8622 -3.5 0 14.9488 -3.55 0 15.0354 -3.6 0 
15.122 -3.65 0 15.2086 -3.7 0 15.2952 -3.75 0 
15.3818 -3.8 0 15.4684 -3.85 0 15.555 -3.9 0 
15.6416 -3.95 0 15.7282 -4 0 15.8148 -4.05 0 
15.9014 -4.1 0 15.988 -4.15 0 16.0746 -4.2 0 
16.1612 -4.25 0 16.2478 -4.3 0 16.3344 -4.35 0 
16.421 -4.4 0 
LINES 3 270
89 0 1 2 3 4 5 6 7 8 9 10 11 12 13 14 15 16 17 18 19 20 21 22 23 24 25 26 27 28 29 30 31 32 33 34 35 36 37 38 39 40 41 42 43 44 45 46 47 48 49 50 51 52 53 54 55 56 57 58 59 60 61 62 63 64 65 66 67 68 69 70 71 72 73 74 75 76 77 78 79 80 81 82 83 84 85 86 87 88 
89 88 89 90 91 92 93 94 95 96 97 98 99 100 101 102 103 104 105 106 107 108 109 110 111 112 113 114 115 116 117 118 119 120 121 122 123 124 125 126 127 128 129 130 131 132 133 134 135 136 137 138 139 140 141 142 143 144 145 146 147 148 149 150 151 152 153 154 155 156 157 158 159 160 161 162 163 164 165 166 167 168 169 170 171 172 173 174 175 176 
89 88 177 178 179 180 181 182 183 184 185 186 187 188 189 190 191 192 193 194 195 196 197 198 199 200 201 202 203 204 205 206 207 208 209 210 211 212 213 214 215 216 217 218 219 220 221 222 223 224 225 226 227 228 229 230 231 232 233 234 235 236 237 238 239 240 241 242 243 244 245 246 247 248 249 250 251 252 253 254 255 256 257 258 259 260 261 262 263 264 

POINT_DATA 265
SCALARS radiiScalars double
LOOKUP_TABLE default
1.27324 1.27324 1.27324 1.27324 1.27324 1.27324 1.27324 1.27324 1.27324 
1.27324 1.27324 1.27324 1.27324 1.27324 1.27324 1.27324 1.27324 1.27324 
1.27324 1.27324 1.27324 1.27324 1.27324 1.27324 1.27324 1.27324 1.27324 
1.27324 1.27324 1.27324 1.27324 1.27324 1.27324 1.27324 1.27324 1.27324 
1.27324 1.27324 1.27324 1.27324 1.27324 1.27324 1.27324 1.27324 1.27324 
1.27324 1.27324 1.27324 1.27324 1.27324 1.27324 1.27324 1.27324 1.27324 
1.27324 1.27324 1.27324 1.27324 1.27324 1.27324 1.27324 1.27324 1.27324 
1.27324 1.27324 1.27324 1.27324 1.27324 1.27324 1.27324 1.27324 1.27324 
1.27324 1.27324 1.27324 1.27324 1.27324 1.27324 1.27324 1.27324 1.27324 
1.27324 1.27324 1.27324 1.27324 1.27324 1.27324 1.27324 1.27324 1.27324 
1.27324 1.27324 1.27324 1.27324 1.27324 1.27324 1.27324 1.27324 1.27324 
1.27324 1.27324 1.27324 1.27324 1.27324 1.27324 1.27324 1.27324 1.27324 
1.27324 1.27324 1.27324 1.27324 1.27324 1.27324 1.27324 1.27324 1.27324 
1.27324 1.27324 1.27324 1.27324 1.27324 1.27324 1.27324 1.27324 1.27324 
1.27324 1.27324 1.27324 1.27324 1.27324 1.27324 1.27324 1.27324 1.27324 
1.27324 1.27324 1.27324 1.27324 1.27324 1.27324 1.27324 1.27324 1.27324 
1.27324 1.27324 1.27324 1.27324 1.27324 1.27324 1.27324 1.27324 1.27324 
1.27324 1.27324 1.27324 1.27324 1.27324 1.27324 1.27324 1.27324 1.27324 
1.27324 1.27324 1.27324 1.27324 1.27324 1.27324 1.27324 1.27324 1.27324 
1.27324 1.27324 1.27324 1.27324 1.27324 1.27324 1.27324 1.27324 1.27324 
1.27324 1.27324 1.27324 1.27324 1.27324 1.27324 1.27324 1.27324 1.27324 
1.27324 1.27324 1.27324 1.27324 1.27324 1.27324 1.27324 1.27324 1.27324 
1.27324 1.27324 1.27324 1.27324 1.27324 1.27324 1.27324 1.27324 1.27324 
1.27324 1.27324 1.27324 1.27324 1.27324 1.27324 1.27324 1.27324 1.27324 
1.27324 1.27324 1.27324 1.27324 1.27324 1.27324 1.27324 1.27324 1.27324 
1.27324 1.27324 1.27324 1.27324 1.27324 1.27324 1.27324 1.27324 1.27324 
1.27324 1.27324 1.27324 1.27324 1.27324 1.27324 1.27324 1.27324 1.27324 
1.27324 1.27324 1.27324 1.27324 1.27324 1.27324 1.27324 1.27324 1.27324 
1.27324 1.27324 1.27324 1.27324 1.27324 1.27324 1.27324 1.27324 1.27324 
1.27324 1.27324 1.27324 1.27324 
